[Molden Format]
[Title]
Written by TeraChem
[Atoms] Angs
C   1   6     39.4618835000   45.5075302000   51.9292107000
H   2   1     39.3455772000   44.7392082000   51.2592773000
H   3   1     38.9185638000   46.3750839000   51.5306168000
C   4   6     40.9567604000   45.8301392000   51.9296112000
C   5   6     41.9086914000   44.7902298000   51.8855515000
H   6   1     41.4507675000   43.8124008000   51.8101158000
C   7   6     43.2941742000   45.1518288000   51.7892075000
H   8   1     44.0876350000   44.4405136000   51.7453308000
C   9   6     43.6177025000   46.5227127000   51.7513733000
H   10   1     44.6088829000   46.8720818000   51.6013260000
C   11   6     42.6520500000   47.4578552000   52.0898056000
H   12   1     42.8528023000   48.5257339000   52.2881279000
C   13   6     41.3008308000   47.1533356000   52.2832413000
H   14   1     40.5910568000   47.9796295000   52.5442924000
C   15   6     44.4660950000   54.7380867000   51.2757950000
O   16   8     43.2879562000   54.7588921000   51.6719513000
N   17   7     45.3418694000   53.8404999000   51.6402206000
H   18   1     46.3027153000   53.9184189000   51.2438736000
C   19   6     45.0861168000   52.6703606000   52.5215874000
H   20   1     44.4478455000   52.9070129000   53.3144569000
C   21   6     44.4381332000   51.6158485000   51.5209045000
H   22   1     44.0111771000   50.7137489000   51.9796982000
H   23   1     43.6314392000   52.0959702000   50.9160194000
C   24   6     45.5771484000   51.2565308000   50.5064240000
H   25   1     45.8785172000   52.0892296000   49.8702049000
H   26   1     46.4654312000   50.8795204000   50.9380264000
C   27   6     45.1484108000   50.1794052000   49.5367393000
O   28   8     44.6646576000   49.1283646000   49.9195900000
N   29   7     45.2703934000   50.3375244000   48.2403984000
H   30   1     45.5631180000   51.3268967000   47.9673615000
H   31   1     44.7494965000   49.7394180000   47.6155167000
C   32   6     46.3848877000   52.1706543000   53.2345924000
O   33   8     47.4752846000   52.6627197000   53.0294647000
N   34   7     46.1310196000   51.1072960000   53.9299202000
H   35   1     45.2014771000   50.6740265000   53.8101387000
C   36   6     47.2056770000   50.2213211000   54.5003967000
H   37   1     48.0766716000   50.2758446000   53.9194450000
C   38   6     47.4997940000   50.7135849000   55.9614220000
H   39   1     48.3317146000   50.1328125000   56.3312874000
C   40   6     48.1339493000   52.1159172000   56.0464249000
H   41   1     47.3724594000   52.7108154000   55.5970459000
H   42   1     48.1353989000   52.5260887000   57.0427551000
H   43   1     49.1420937000   52.1099548000   55.5810738000
O   44   8     46.3039169000   50.7117424000   56.7029762000
H   45   1     46.3149986000   49.7962494000   57.0536957000
C   46   6     46.6654930000   48.7703781000   54.5491257000
O   47   8     45.4415665000   48.5419769000   54.3388443000
N   48   7     47.5992012000   47.8397141000   54.7652016000
H   49   1     48.5359344000   48.1242065000   54.8548431000
C   50   6     47.3121490000   46.4104538000   54.8765488000
H   51   1     46.3046036000   46.3030014000   55.2643433000
C   52   6     47.2782860000   45.7172966000   53.5238953000
H   53   1     46.5737572000   46.2311592000   52.8684387000
H   54   1     48.2638206000   45.8057709000   53.1346703000
H   55   1     46.8452072000   44.7025452000   53.6275330000
C   56   6     49.8621902000   40.6384621000   53.3053246000
H   57   1     50.8952293000   40.8327675000   53.3714752000
H   58   1     49.6800194000   39.8399010000   52.5684280000
C   59   6     49.3094635000   41.8728180000   52.5446548000
H   60   1     49.5538139000   41.6384048000   51.4706001000
C   61   6     47.8159523000   41.8947144000   52.4169388000
H   62   1     47.5007477000   42.7217026000   51.8202629000
H   63   1     47.4635620000   40.9476776000   51.9352531000
H   64   1     47.3251572000   41.9077682000   53.3937378000
C   65   6     49.8049088000   43.3236923000   52.9075279000
H   66   1     50.8650246000   43.3325348000   52.9352875000
H   67   1     49.5813713000   44.0412903000   52.1540985000
H   68   1     49.4442825000   43.6068268000   53.8281822000
C   69   6     53.0385780000   42.7768364000   45.9981842000
O   70   8     51.8086472000   42.9010086000   45.9192352000
N   71   7     53.8349571000   43.7376556000   46.4570694000
H   72   1     54.8319435000   43.6167183000   46.6500130000
C   73   6     53.2110519000   44.9857140000   46.9820709000
H   74   1     52.5057640000   44.6969185000   47.7823715000
C   75   6     54.2668571000   45.8895149000   47.7093315000
H   76   1     54.8725052000   46.3870773000   46.9528503000
H   77   1     53.7688370000   46.7028236000   48.3702164000
O   78   8     55.0975647000   45.2181282000   48.6247330000
H   79   1     54.4966202000   44.9309311000   49.3906326000
C   80   6     52.3739166000   45.8199921000   46.0181198000
O   81   8     51.3135719000   46.1657295000   46.4882240000
N   82   7     52.6599655000   46.0202599000   44.7230606000
C   83   6     53.9641533000   45.8869972000   44.1913185000
H   84   1     54.1718445000   44.9112167000   43.8899422000
H   85   1     54.6375580000   46.1519470000   45.0152893000
C   86   6     54.0438118000   46.9820633000   43.0953369000
H   87   1     54.7740364000   46.6255264000   42.3938370000
H   88   1     54.1042023000   47.9867706000   43.5487785000
C   89   6     52.6083336000   46.7187538000   42.5414505000
H   90   1     52.5479736000   45.9387932000   41.8680916000
H   91   1     52.3917732000   47.5383339000   41.8869858000
C   92   6     51.7388153000   46.6774559000   43.7994995000
H   93   1     51.5289154000   47.7088928000   44.1083946000
C   94   6     50.4587250000   45.9125099000   43.5227127000
O   95   8     49.8495331000   46.2800026000   42.5363960000
N   96   7     50.0651169000   44.8807335000   44.2015305000
H   97   1     50.6819000000   44.5770035000   44.9055634000
C   98   6     49.0853348000   43.8530426000   43.6909103000
H   99   1     48.6379089000   44.1503983000   42.8077545000
C   100   6     49.9105034000   42.5929222000   43.3876266000
H   101   1     49.9748611000   42.1486092000   44.3531837000
H   102   1     49.3098640000   42.0020523000   42.8053894000
C   103   6     51.2952080000   42.7250328000   42.7228966000
H   104   1     51.9741211000   43.3246155000   43.3113899000
H   105   1     51.6206207000   41.6955605000   42.7948799000
C   106   6     51.3312836000   43.2154503000   41.3122559000
O   107   8     50.3369331000   43.4536552000   40.6023827000
N   108   7     52.5292969000   43.3659210000   40.7455673000
H   109   1     53.3714256000   42.9608955000   41.1715622000
H   110   1     52.5384941000   43.6312141000   39.8283157000
C   111   6     47.9109344000   43.5303040000   44.6642914000
O   112   8     46.9413223000   43.1244469000   44.1020432000
N   113   7     48.0870361000   43.8497391000   45.9548721000
H   114   1     48.9748344000   44.2273331000   46.1759949000
C   115   6     46.9839783000   43.9814529000   46.8259430000
H   116   1     46.2193527000   43.2141151000   46.6681366000
C   117   6     47.4462929000   43.9229279000   48.3091888000
H   118   1     47.9657669000   44.8639107000   48.5331764000
H   119   1     46.6442719000   43.8525620000   49.0177383000
C   120   6     48.4008942000   42.8105888000   48.6221848000
C   121   6     49.8324509000   42.9662857000   48.4617958000
H   122   1     50.1818771000   43.8650551000   48.1001587000
C   123   6     50.6853447000   41.8972359000   48.6688232000
H   124   1     51.6983109000   42.0237389000   48.3539619000
C   125   6     50.1786652000   40.6226158000   49.0459900000
H   126   1     50.8886261000   39.8079834000   49.1694107000
C   127   6     48.8493958000   40.4167862000   49.2654839000
H   128   1     48.4475365000   39.4301758000   49.5000534000
C   129   6     47.9304199000   41.5138168000   48.9116096000
H   130   1     46.8503342000   41.2778320000   48.8437996000
C   131   6     46.1276855000   45.2283936000   46.6071243000
O   132   8     44.9293137000   45.2029076000   46.8357811000
N   133   7     46.7480850000   46.2078438000   45.7986870000
C   134   6     47.2650223000   47.3514023000   45.9972153000
C   135   6     47.5571365000   47.9977379000   47.3485184000
C   136   6     49.0017624000   47.6764641000   47.8744850000
S   137   16     49.2180405000   48.2146301000   49.6019707000
C   138   6     47.8616333000   47.3050537000   50.5325699000
H   139   1     48.2199402000   46.2642288000   50.8133278000
H   140   1     47.6865005000   48.0037994000   51.3802185000
H   141   1     46.9928436000   47.1711960000   49.8844185000
H   142   1     49.3101158000   46.6691589000   47.7054672000
H   143   1     49.6670914000   48.3726692000   47.4365616000
H   144   1     47.5511742000   49.0877228000   47.2870865000
H   145   1     46.7852478000   47.7124939000   48.0614166000
C   146   6     47.6660309000   48.0832138000   44.7255135000
N   147   7     48.7023010000   48.8695221000   44.6076584000
C   148   6     48.7881088000   49.1144867000   43.2483635000
C   149   6     49.8661995000   49.6789932000   42.5422134000
C   150   6     50.9876060000   50.4602394000   42.8805695000
C   151   6     51.7969284000   50.9597435000   41.8256378000
C   152   6     52.5288963000   52.0826645000   41.9838676000
C   153   6     52.7071533000   52.7872925000   43.2588043000
C   154   6     51.6773262000   52.4383316000   44.2774506000
C   155   6     51.0036087000   51.2588921000   44.1381302000
H   156   1     50.2256050000   50.8789139000   44.8942528000
H   157   1     51.5423164000   53.0623016000   45.1585579000
O   158   8     53.5743141000   53.7205582000   43.3542938000
H   159   1     52.8736343000   52.4244690000   41.0501556000
H   160   1     51.5236702000   50.5701103000   40.7501030000
H   161   1     49.7808418000   49.5072174000   41.4645195000
C   162   6     47.6873817000   48.4832230000   42.4875450000
O   163   8     47.3801994000   48.4695396000   41.2974510000
N   164   7     47.0594749000   47.7606812000   43.4744682000
C   165   6     46.0344238000   46.8056450000   43.0586967000
C   166   6     44.6229134000   47.2908325000   43.4303741000
O   167   8     43.7881050000   47.5046844000   42.5275192000
H   168   1     46.1015358000   46.9338951000   41.9637108000
H   169   1     46.2912712000   45.7801094000   43.4277153000
N   170   7     44.3470802000   47.4953690000   44.7239914000
H   171   1     45.0731659000   47.3488998000   45.4344482000
C   172   6     42.9902687000   47.8377571000   45.2548027000
H   173   1     42.2475052000   47.1856499000   44.7180786000
C   174   6     42.9195976000   47.5675659000   46.7567253000
H   175   1     42.1213188000   48.1406250000   47.3161736000
H   176   1     42.7624207000   46.5430832000   47.0227051000
O   177   8     44.1410217000   47.9266434000   47.3389015000
H   178   1     44.2491302000   47.5892105000   48.2465286000
C   179   6     42.5780640000   49.3260345000   44.9376297000
O   180   8     42.1842003000   50.0715828000   45.8411026000
N   181   7     42.6254845000   49.7685471000   43.7038116000
H   182   1     42.7400932000   49.0929947000   42.9413414000
C   183   6     42.5380478000   51.1926079000   43.3443680000
H   184   1     43.1130638000   51.8094215000   44.0018463000
C   185   6     43.0990601000   51.3872910000   41.9083862000
H   186   1     42.5541687000   50.5875816000   41.3382378000
H   187   1     42.7780304000   52.3070984000   41.4502258000
C   188   6     44.5750351000   51.0378990000   41.7778053000
H   189   1     44.6743698000   50.0546608000   42.1048431000
H   190   1     44.8406982000   51.0735741000   40.6467018000
C   191   6     45.5184326000   51.9070053000   42.6199265000
H   192   1     45.2528915000   52.9393234000   42.6138077000
H   193   1     45.5191765000   51.5314941000   43.7071419000
C   194   6     46.9389153000   51.7349319000   42.0774002000
H   195   1     47.0604134000   50.6762390000   41.7762032000
H   196   1     47.1112404000   52.2137604000   41.0991631000
N   197   7     48.0386581000   52.1131516000   43.0318222000
H   198   1     48.0338707000   53.0900421000   43.2698479000
H   199   1     47.7154961000   51.6663017000   43.8513107000
H   200   1     48.9395714000   51.7571869000   42.7610245000
C   201   6     37.0793533000   46.8584251000   39.1693954000
H   202   1     37.4714165000   47.0555534000   38.1485939000
H   203   1     36.3737106000   47.6506271000   39.3646851000
C   204   6     38.0894127000   47.0810928000   40.2924042000
C   205   6     39.4100227000   46.6639328000   40.1408958000
H   206   1     39.7287827000   46.1826324000   39.2583389000
C   207   6     40.3757515000   46.8497162000   41.1559258000
H   208   1     41.3051186000   46.3514366000   41.1401520000
C   209   6     40.0156631000   47.6026001000   42.3392067000
H   210   1     40.7307816000   47.6765213000   43.1904526000
C   211   6     38.7020798000   48.1338348000   42.4337921000
H   212   1     38.4093628000   48.6413155000   43.3267670000
C   213   6     37.7602921000   47.8161812000   41.4704704000
H   214   1     36.7380829000   48.1768341000   41.5895462000
C   215   6     42.9519806000   45.0515900000   36.6560593000
H   216   1     43.8150101000   45.2709503000   36.0595970000
H   217   1     42.2505760000   45.8869209000   36.4782372000
C   218   6     43.4978523000   45.0616837000   38.0744514000
C   219   6     42.9358368000   45.7395477000   39.1085854000
H   220   1     41.9786301000   46.2380524000   39.0891380000
N   221   7     43.7989082000   45.5810165000   40.1971893000
H   222   1     43.5781479000   45.9294930000   41.1108589000
C   223   6     44.8488541000   44.7475128000   39.9414597000
C   224   6     45.9019051000   44.1965942000   40.7121315000
H   225   1     45.9436111000   44.3493652000   41.7795982000
C   226   6     46.9390717000   43.4639587000   40.0378265000
H   227   1     47.7483063000   42.9844894000   40.6258049000
C   228   6     46.8477783000   43.2099838000   38.6593094000
H   229   1     47.6659012000   42.6959381000   38.0752373000
C   230   6     45.7274857000   43.6997414000   37.9179535000
H   231   1     45.5564880000   43.4634552000   36.8873558000
C   232   6     44.7172699000   44.4664726000   38.5253105000
C   233   6     48.9539871000   43.7630539000   35.6009712000
H   234   1     48.0577164000   44.3918800000   35.7887192000
H   235   1     49.0751266000   42.9283943000   36.3537064000
C   236   6     50.1950874000   44.6182823000   35.8174477000
H   237   1     51.0190392000   43.9927711000   35.8571281000
H   238   1     50.3571739000   45.3441696000   34.9643555000
C   239   6     50.2853203000   45.3104019000   37.1696815000
H   240   1     50.2722893000   44.6386032000   38.0416718000
H   241   1     51.3156929000   45.7235413000   37.2661247000
N   242   7     49.2348671000   46.3005142000   37.4196739000
H   243   1     48.8822899000   46.6796265000   36.5485878000
C   244   6     48.8341560000   46.8291626000   38.6389084000
N   245   7     49.1469040000   46.2957916000   39.8106537000
H   246   1     49.6130219000   45.4216690000   39.9554596000
H   247   1     48.9307365000   46.8714828000   40.6716766000
N   248   7     48.1076508000   47.9256668000   38.6801262000
H   249   1     47.8189278000   48.4350014000   37.8467484000
H   250   1     47.6654015000   48.1990242000   39.5986404000
C   251   6     43.3243408000   42.0611000000   41.2568855000
H   252   1     44.3720551000   41.9844780000   41.5114937000
H   253   1     43.2622452000   42.9388275000   40.7205391000
C   254   6     42.4412537000   42.3829689000   42.4408302000
H   255   1     41.4527473000   42.6850357000   42.0796165000
H   256   1     42.4080315000   41.6148720000   43.2355042000
C   257   6     42.8978310000   43.6334267000   43.1318741000
O   258   8     42.3748932000   44.7192383000   42.9732666000
N   259   7     43.7385483000   43.5312691000   44.1467590000
H   260   1     44.1795158000   42.6811523000   44.4857864000
H   261   1     43.9205208000   44.3108940000   44.7480850000
C   262   6     59.3420563000   52.6026497000   45.1319046000
O   263   8     58.8876534000   53.3001175000   46.0972633000
N   264   7     59.8985672000   53.1877708000   44.0598373000
H   265   1     60.0640717000   52.5114403000   43.3039436000
C   266   6     59.9385605000   54.6327667000   43.9314651000
H   267   1     60.3766823000   55.0207520000   44.8123322000
C   268   6     60.8676758000   54.9802246000   42.7252960000
H   269   1     61.8343353000   54.4054184000   42.8650475000
H   270   1     60.4488411000   54.4080162000   41.8732605000
C   271   6     61.0555115000   56.4795341000   42.4557953000
H   272   1     61.6607819000   56.5496902000   41.5330582000
H   273   1     60.0521889000   56.8683434000   42.1013412000
C   274   6     61.5650520000   57.2002487000   43.6802483000
O   275   8     62.8549118000   57.2713165000   43.7490883000
O   276   8     60.6963730000   57.5313873000   44.4968948000
C   277   6     58.5012093000   55.2132721000   43.6619949000
O   278   8     57.6395340000   54.4554520000   43.2241859000
N   279   7     58.2365036000   56.4983368000   43.9461098000
H   280   1     58.9347267000   57.0260086000   44.3501205000
C   281   6     57.0870972000   57.2271194000   43.4229088000
H   282   1     56.2659836000   56.9336853000   43.9202919000
C   283   6     57.3000679000   58.6717453000   43.7374458000
H   284   1     57.4071884000   58.7397919000   44.8439369000
H   285   1     58.2860756000   58.9526520000   43.2958984000
H   286   1     56.3706627000   59.1809921000   43.4719505000
C   287   6     56.7106552000   56.9014893000   41.9597321000
O   288   8     57.6773643000   56.9579773000   41.1777802000
N   289   7     55.4441528000   56.6444435000   41.5243607000
H   290   1     54.6828423000   56.8167572000   42.1952057000
C   291   6     55.1406517000   56.1519165000   40.1480827000
H   292   1     55.7616844000   56.3942108000   39.2949715000
C   293   6     55.1054344000   54.5814056000   40.1869392000
H   294   1     56.0304413000   54.1577835000   40.6741867000
H   295   1     54.1707039000   54.2580070000   40.5072441000
S   296   16     55.2161980000   53.9423790000   38.5051003000
H   297   1     53.9032745000   54.0514336000   38.2076187000
C   298   6     53.3574715000   51.8029633000   35.5039253000
H   299   1     53.8938560000   50.9171219000   35.5405235000
H   300   1     53.8856125000   52.4875793000   36.2280197000
C   301   6     51.9126968000   51.6196671000   35.9199753000
H   302   1     51.4544258000   52.5395203000   35.6291924000
H   303   1     51.4390640000   50.8238068000   35.3524017000
S   304   16     51.8603096000   51.2452011000   37.7178535000
C   305   6     50.3145256000   50.3717957000   37.8148499000
H   306   1     50.2771225000   49.5025673000   37.0864029000
H   307   1     50.1218872000   50.0691071000   38.8520584000
H   308   1     49.5038147000   51.0903358000   37.5596657000
C   309   6     57.2919884000   49.8541641000   37.9296646000
H   310   1     57.4575958000   48.9754333000   37.3113785000
H   311   1     57.4469452000   49.5059433000   38.9521561000
C   312   6     55.7901306000   50.2911568000   37.7553177000
H   313   1     55.5616913000   51.3504715000   37.8509369000
H   314   1     55.4513626000   50.0565758000   36.7582550000
S   315   16     54.7065811000   49.5557976000   38.9858131000
C   316   6     55.0464020000   50.5241547000   40.4211426000
H   317   1     54.8800697000   51.5478821000   40.2783966000
H   318   1     54.4692688000   50.1892090000   41.3052559000
H   319   1     56.0335617000   50.2968788000   40.7751999000
C   320   6     41.0885963000   48.7375793000   35.0945549000
H   321   1     40.9482956000   49.5073624000   34.3329468000
H   322   1     40.2407112000   48.7659531000   35.8135262000
C   323   6     42.3717079000   49.0901184000   35.8176384000
C   324   6     42.6660461000   48.6430664000   37.1363106000
H   325   1     41.9723663000   47.9644318000   37.6760521000
C   326   6     43.8306847000   49.0682945000   37.8146210000
H   327   1     44.0796700000   48.7744675000   38.7638626000
C   328   6     44.7584152000   49.8567734000   37.1634560000
O   329   8     45.9221687000   50.1127205000   37.7695808000
H   330   1     46.6251030000   50.5527153000   37.2263489000
C   331   6     44.5402603000   50.2952118000   35.8797379000
H   332   1     45.2355003000   51.0903778000   35.3704033000
C   333   6     43.2970428000   49.9931564000   35.2373657000
H   334   1     43.0591507000   50.4798813000   34.3033180000
C   335   6     49.8962097000   58.4683838000   41.6202888000
O   336   8     48.8708572000   58.4353638000   42.2060471000
N   337   7     50.9733620000   57.9316177000   42.1443176000
H   338   1     51.8539276000   58.1912918000   41.7409706000
C   339   6     50.9168472000   56.8396530000   43.1331863000
H   340   1     50.0723686000   56.9656563000   43.8812447000
C   341   6     50.7534599000   55.4542542000   42.5071678000
H   342   1     50.7384415000   54.7130890000   43.3035469000
C   343   6     49.5581207000   55.2880249000   41.6249504000
H   344   1     49.7265778000   55.8167229000   40.6551056000
H   345   1     49.3611298000   54.2613258000   41.4642410000
H   346   1     48.7864914000   55.7303925000   42.1479454000
O   347   8     51.8533516000   55.1493263000   41.7371407000
H   348   1     52.5317078000   54.6809196000   42.2531929000
C   349   6     52.2169876000   56.8435516000   43.9880409000
O   350   8     53.3063469000   57.2024879000   43.4455109000
N   351   7     52.1355095000   56.4770737000   45.2842484000
H   352   1     51.2029572000   56.1316757000   45.4931641000
C   353   6     53.1525345000   56.2208748000   46.2317352000
H   354   1     54.0265579000   56.0575485000   45.5600014000
C   355   6     53.4295731000   57.4445686000   47.1112976000
H   356   1     52.4783554000   57.8183327000   47.4719429000
H   357   1     53.9673691000   57.1488113000   48.0093460000
C   358   6     54.1559601000   58.5582428000   46.4051437000
H   359   1     55.0375404000   58.2806549000   45.9859009000
H   360   1     53.5899391000   58.8903503000   45.4898643000
C   361   6     54.3772469000   59.7313614000   47.3034325000
H   362   1     53.4099159000   59.8361588000   47.8712654000
H   363   1     55.2317467000   59.6107101000   47.9014893000
C   364   6     54.6430244000   60.9844284000   46.4209671000
H   365   1     55.3694153000   60.7881088000   45.6195259000
H   366   1     53.6452065000   61.2601280000   46.0567932000
N   367   7     55.0593262000   62.1878281000   47.1845856000
H   368   1     55.1208305000   62.9708405000   46.5357056000
H   369   1     54.4825172000   62.4187927000   47.9992371000
H   370   1     55.9536209000   62.0400009000   47.6142082000
C   371   6     52.8251686000   54.9346962000   47.0346603000
O   372   8     51.6642418000   54.6518173000   47.3322258000
N   373   7     53.8472595000   54.1389885000   47.3336754000
H   374   1     54.7606277000   54.4614220000   47.0167313000
C   375   6     53.8537369000   52.8246918000   48.0368652000
H   376   1     52.9519844000   52.7285614000   48.6423340000
C   377   6     53.7409134000   51.7871170000   46.9108353000
H   378   1     52.6962280000   51.9192467000   46.5041122000
H   379   1     54.3050461000   52.1854706000   46.1028252000
C   380   6     54.0542641000   50.2916298000   47.1876678000
H   381   1     55.0044098000   50.1416092000   47.7308121000
C   382   6     53.0625954000   49.7196236000   48.1575851000
H   383   1     53.0507126000   48.7498512000   48.1604919000
H   384   1     53.3078384000   49.9344978000   49.1988831000
H   385   1     52.0767632000   50.1781769000   47.9856567000
C   386   6     53.9607658000   49.5019531000   45.8858643000
H   387   1     54.0054283000   48.4300957000   46.0225296000
H   388   1     52.9945450000   49.6528702000   45.4763412000
H   389   1     54.6807137000   49.9190292000   45.1950111000
C   390   6     52.8443222000   46.4698257000   55.4551353000
O   391   8     54.0789261000   46.6784630000   55.2287598000
N   392   7     51.8620720000   47.0650063000   54.8211632000
H   393   1     50.8888664000   46.8265724000   55.1263428000
C   394   6     52.0179710000   48.0367661000   53.6478271000
H   395   1     53.0375862000   48.3752785000   53.6343689000
C   396   6     51.6169930000   47.4666290000   52.2690773000
H   397   1     50.6249428000   47.0464630000   52.2302856000
H   398   1     51.4698563000   48.2590065000   51.5580750000
C   399   6     52.6277313000   46.4744186000   51.6956558000
H   400   1     53.5616989000   47.0511551000   51.4562454000
H   401   1     52.8028412000   45.7268372000   52.4674072000
C   402   6     52.3161011000   45.6117554000   50.4964905000
O   403   8     53.0859795000   44.7015381000   50.1410904000
N   404   7     51.2389221000   45.8718796000   49.8117371000
H   405   1     50.6847916000   46.6921844000   49.9159927000
H   406   1     50.9654694000   45.3809776000   49.0126343000
C   407   6     51.0768127000   49.3058777000   53.7219772000
O   408   8     50.0875168000   49.2679214000   54.4895020000
N   409   7     51.3935623000   50.3398476000   52.9930801000
H   410   1     52.2571526000   50.1719589000   52.4173203000
C   411   6     50.7913818000   51.6304703000   52.8426132000
H   412   1     49.7812119000   51.6774597000   53.1201897000
C   413   6     51.5364876000   52.6893578000   53.5847092000
H   414   1     51.2951965000   52.4296341000   54.6011658000
H   415   1     52.6038437000   52.3997574000   53.4320679000
C   416   6     51.2727814000   54.1644745000   53.3292542000
C   417   6     50.0306854000   54.6263275000   53.7327118000
H   418   1     49.2340317000   53.9418030000   54.0956726000
C   419   6     49.7094650000   55.9833755000   53.5065308000
H   420   1     48.6922226000   56.3926277000   53.7699432000
C   421   6     50.6795883000   56.7390251000   52.7413406000
O   422   8     50.3407097000   58.0567093000   52.4792061000
H   423   1     51.1571884000   58.5314636000   52.2262154000
C   424   6     51.9456062000   56.2297821000   52.3996544000
H   425   1     52.5633202000   56.8800659000   51.7696457000
C   426   6     52.2369614000   54.8681831000   52.6623535000
H   427   1     53.1814766000   54.4415283000   52.3252907000
C   428   6     50.7894745000   52.0633354000   51.3985977000
O   429   8     51.7923813000   51.8830681000   50.6647644000
N   430   7     49.7182503000   52.7865829000   50.9850845000
H   431   1     48.9073601000   53.0070190000   51.6044426000
C   432   6     49.5492859000   53.1018906000   49.6066284000
H   433   1     50.5804443000   53.3177338000   49.1851578000
C   434   6     49.0175018000   51.8428726000   48.8691483000
H   435   1     49.5337868000   50.9085693000   49.0407181000
H   436   1     47.9677429000   51.7273560000   49.2570343000
C   437   6     49.0718422000   52.0136490000   47.3247108000
H   438   1     49.5177422000   52.8938217000   46.9776459000
H   439   1     49.6897354000   51.2161331000   46.9966545000
C   440   6     47.6083298000   52.0435524000   46.7336578000
O   441   8     46.6524963000   52.6453094000   47.3418198000
O   442   8     47.4301147000   51.5162354000   45.6214142000
C   443   6     48.7421074000   54.4011879000   49.5821762000
O   444   8     47.8833733000   54.6449890000   50.3934860000
N   445   7     48.9564514000   55.2111473000   48.5532837000
H   446   1     49.6997223000   54.9234200000   47.8897247000
C   447   6     48.3195496000   56.5344849000   48.2885666000
H   448   1     47.2275124000   56.5948944000   48.6336212000
C   449   6     49.1126480000   57.5908089000   49.1648407000
H   450   1     49.1186562000   57.2964020000   50.1891632000
H   451   1     50.1219177000   57.6501923000   48.8599701000
C   452   6     48.4951248000   58.9995651000   49.0247574000
H   453   1     48.8426552000   59.4264069000   48.0746498000
H   454   1     47.3882523000   58.9314842000   48.9069748000
C   455   6     48.9333916000   59.9761734000   50.0664673000
H   456   1     49.9726830000   59.7477303000   50.3344650000
H   457   1     48.8596268000   60.9967461000   49.7298088000
N   458   7     48.1196289000   60.0253334000   51.3146019000
H   459   1     48.5860863000   59.7984161000   52.1460419000
C   460   6     46.9908943000   60.7392044000   51.5254555000
N   461   7     46.3072014000   61.3130760000   50.5422821000
H   462   1     46.5935326000   61.0754471000   49.5934982000
H   463   1     45.4769211000   61.8703995000   50.7622528000
N   464   7     46.4845428000   60.8722343000   52.6787949000
H   465   1     46.9403038000   60.5270348000   53.5177536000
H   466   1     45.8666420000   61.6751480000   52.8392067000
C   467   6     48.2997322000   56.8981400000   46.8467484000
O   468   8     49.2703247000   56.6863022000   46.1351433000
N   469   7     47.2574081000   57.5835838000   46.3703575000
H   470   1     46.5606270000   57.6977615000   47.0210609000
C   471   6     47.0486221000   57.8853188000   44.9633636000
H   472   1     48.0442772000   58.0565186000   44.5702553000
C   473   6     46.3315506000   56.6997375000   44.2605553000
H   474   1     45.3376389000   56.6816292000   44.6307030000
H   475   1     46.3601151000   56.8040466000   43.1379280000
C   476   6     46.8225098000   55.3336372000   44.5877113000
O   477   8     47.8018913000   54.7984352000   44.1169205000
N   478   7     46.0593948000   54.5016174000   45.2937927000
H   479   1     46.4277573000   53.6767159000   45.6915627000
H   480   1     45.1943169000   54.8224220000   45.7832909000
H   481   1     39.0222019526   45.1649829618   52.8659291884
H   482   1     44.8206814332   55.6018869225   50.7134626810
H   483   1     47.9582600225   45.8735332475   55.5710679624
H   484   1     49.4676242280   40.3605801791   54.2826675960