[Molden Format]
[Title]
Written by TeraChem
[Atoms] Angs
C   1   6     39.6146660000   45.6240463000   51.4370384000
H   2   1     39.4431953000   44.7352028000   50.7886276000
H   3   1     39.0374222000   46.3816261000   50.9794159000
C   4   6     41.0860405000   46.0034981000   51.4207687000
C   5   6     42.1038628000   45.0359955000   51.1264343000
H   6   1     41.7894936000   44.0965614000   50.9038353000
C   7   6     43.4343338000   45.4686966000   50.9456673000
H   8   1     44.1441574000   44.7983322000   50.4498863000
C   9   6     43.8471832000   46.7128830000   51.4144096000
H   10   1     44.9478989000   46.9513092000   51.3947144000
C   11   6     42.8400764000   47.6160011000   51.8787766000
H   12   1     43.1615372000   48.5401077000   52.3309174000
C   13   6     41.4891014000   47.2662430000   51.8918457000
H   14   1     40.7303162000   48.0115738000   52.2530556000
C   15   6     44.2407074000   55.3184814000   51.2387009000
O   16   8     43.0268707000   55.2828064000   51.6222572000
N   17   7     45.0916443000   54.3135300000   51.6177406000
H   18   1     46.0527267000   54.4161682000   51.2452278000
C   19   6     44.7976761000   53.0826797000   52.2925720000
H   20   1     44.1317596000   53.2323990000   53.1035538000
C   21   6     44.2354393000   52.0045662000   51.3606720000
H   22   1     44.0134087000   51.0565567000   51.8892250000
H   23   1     43.2643890000   52.3183289000   51.0137749000
C   24   6     45.1401520000   51.7829552000   50.1540413000
H   25   1     45.0255394000   52.7437782000   49.5233231000
H   26   1     46.1636276000   51.7793121000   50.5459824000
C   27   6     44.7595634000   50.6977234000   49.2437401000
O   28   8     44.3583717000   49.5933990000   49.5781898000
N   29   7     44.9269791000   51.0005035000   48.0061302000
H   30   1     45.5062523000   51.8363762000   47.8901329000
H   31   1     44.7554321000   50.3195000000   47.3235359000
C   32   6     46.0451431000   52.6143723000   53.1163788000
O   33   8     47.1752739000   53.0413857000   52.8749161000
N   34   7     45.7616806000   51.6830025000   54.0301895000
H   35   1     44.7977829000   51.4714012000   54.2701683000
C   36   6     46.7979660000   50.8171806000   54.6600113000
H   37   1     47.7433853000   51.0486298000   54.0352440000
C   38   6     47.0116768000   51.1622047000   56.1567268000
H   39   1     47.6421890000   50.4074020000   56.5532494000
C   40   6     47.6779366000   52.5500565000   56.3376770000
H   41   1     48.7127380000   52.5579605000   56.0646286000
H   42   1     47.1554108000   53.2711830000   55.6955147000
H   43   1     47.6049995000   52.8858643000   57.3605957000
O   44   8     45.8208427000   51.2286911000   56.8964920000
H   45   1     45.6946564000   50.3063622000   57.2434425000
C   46   6     46.3791618000   49.4195862000   54.5548210000
O   47   8     45.2042770000   49.1707573000   54.3893204000
N   48   7     47.3222351000   48.4348640000   54.6381798000
H   49   1     48.2496262000   48.7713432000   54.5838127000
C   50   6     47.0874710000   46.9939423000   54.5796356000
H   51   1     46.1042213000   46.7802734000   54.9520874000
C   52   6     47.3200989000   46.5591431000   53.1277657000
H   53   1     48.3743820000   46.8169975000   52.7709618000
H   54   1     47.1293182000   45.5447388000   52.8939247000
H   55   1     46.5772781000   47.1858940000   52.6024475000
C   56   6     50.2159576000   40.9801865000   54.0148544000
H   57   1     51.3224602000   40.9974670000   54.2860374000
H   58   1     49.9701271000   40.0913086000   53.3350601000
C   59   6     49.8037109000   42.0595474000   52.9571991000
H   60   1     50.2634888000   41.7539253000   51.9888229000
C   61   6     48.3031845000   42.2566147000   52.6917343000
H   62   1     47.7697220000   42.7705765000   53.4421577000
H   63   1     48.2204895000   42.7753525000   51.7448654000
H   64   1     47.8767357000   41.2815437000   52.5901451000
C   65   6     50.3630066000   43.4137115000   53.1938248000
H   66   1     49.8864403000   43.8291016000   54.0781441000
H   67   1     51.4772987000   43.3524399000   53.2428703000
H   68   1     50.1904297000   44.0949669000   52.3923073000
C   69   6     53.5818443000   42.5614014000   46.0854492000
O   70   8     52.3448906000   42.6570663000   46.2546463000
N   71   7     54.4201126000   43.5163918000   46.4614334000
H   72   1     55.3750954000   43.3290176000   46.3624535000
C   73   6     53.9569626000   44.6887665000   47.1886635000
H   74   1     53.3753052000   44.3364372000   48.0244217000
C   75   6     55.1296082000   45.6516647000   47.5749130000
H   76   1     55.8367157000   45.1957550000   48.1733322000
H   77   1     55.5587387000   46.0605850000   46.6388168000
O   78   8     54.7812195000   46.7974167000   48.2734680000
H   79   1     54.4245987000   46.5709648000   49.1910400000
C   80   6     52.8295822000   45.4788551000   46.3969002000
O   81   8     51.8813019000   45.8876228000   47.0786247000
N   82   7     52.8696976000   45.6589966000   45.0522804000
C   83   6     53.9875755000   45.3385315000   44.1331902000
H   84   1     54.0343018000   44.2719078000   43.9886131000
H   85   1     54.8296432000   45.8671379000   44.6003151000
C   86   6     53.6232033000   45.9779167000   42.7364655000
H   87   1     53.0701370000   45.2921143000   42.0281410000
H   88   1     54.4818535000   46.3914261000   42.1347847000
C   89   6     52.7490616000   47.1861725000   43.2192421000
H   90   1     52.1872101000   47.5637398000   42.3479233000
H   91   1     53.4723969000   47.8965073000   43.6449471000
C   92   6     51.9019890000   46.5159607000   44.3355637000
H   93   1     51.6272430000   47.3483810000   44.9883842000
C   94   6     50.6675415000   45.7607994000   43.7176819000
O   95   8     50.2267494000   46.0215378000   42.5986252000
N   96   7     50.2457123000   44.6750259000   44.3891373000
H   97   1     50.7190361000   44.3764687000   45.2574005000
C   98   6     49.1630974000   43.7663956000   44.0695648000
H   99   1     48.7340202000   44.1212273000   43.1412468000
C   100   6     49.7636986000   42.3515015000   43.9206009000
H   101   1     49.7850113000   41.9272690000   44.9516296000
H   102   1     49.1666603000   41.7330017000   43.2976227000
C   103   6     51.1998596000   42.1255188000   43.3059769000
H   104   1     51.9265060000   42.6965561000   43.8726387000
H   105   1     51.4403000000   41.0588608000   43.4548035000
C   106   6     51.4207802000   42.6087379000   41.8826294000
O   107   8     50.4721222000   42.8968010000   41.1735840000
N   108   7     52.7121544000   42.6886978000   41.4334908000
H   109   1     53.5180588000   42.4631844000   42.0377045000
H   110   1     52.8736115000   43.0070648000   40.4871216000
C   111   6     48.0161247000   43.7395401000   45.0755157000
O   112   8     46.9154053000   43.3623276000   44.7287788000
N   113   7     48.2429886000   44.0914536000   46.2908211000
H   114   1     49.1238022000   44.1596527000   46.6171188000
C   115   6     47.2336349000   44.1354942000   47.2885208000
H   116   1     46.5789833000   43.2684364000   47.1151352000
C   117   6     47.8711243000   44.0619469000   48.7008286000
H   118   1     48.4149017000   45.0040855000   48.8433228000
H   119   1     47.0562401000   43.9652405000   49.4705544000
C   120   6     48.7711563000   42.9085159000   48.8824539000
C   121   6     50.1112061000   43.0554771000   48.5854378000
H   122   1     50.4516754000   44.0337067000   48.2513237000
C   123   6     50.9538574000   41.9731216000   48.7980309000
H   124   1     51.9894180000   42.0329819000   48.4370041000
C   125   6     50.4492416000   40.7289162000   49.1599197000
H   126   1     51.1047211000   39.8856621000   49.1658478000
C   127   6     49.1314621000   40.5898819000   49.5049248000
H   128   1     48.7271843000   39.6255798000   49.8961334000
C   129   6     48.3050003000   41.6737213000   49.4003677000
H   130   1     47.2418671000   41.4811554000   49.6973495000
C   131   6     46.2823830000   45.3154182000   47.3427200000
O   132   8     45.3787994000   45.4277611000   48.1569824000
N   133   7     46.4434471000   46.1878166000   46.2572632000
C   134   6     47.4312286000   46.9281921000   46.1435394000
C   135   6     48.5090332000   47.3792801000   47.1808929000
C   136   6     47.7530098000   47.9452896000   48.5072250000
S   137   16     48.9914284000   48.6515503000   49.6846046000
C   138   6     47.8616562000   49.1388359000   51.0114632000
H   139   1     46.9095421000   48.4643326000   51.0628700000
H   140   1     48.3962975000   48.9469681000   51.9672775000
H   141   1     47.4627647000   50.1740303000   50.8888855000
H   142   1     47.2870827000   48.8644600000   48.0765076000
H   143   1     47.1099815000   47.2129478000   49.0642624000
H   144   1     49.1856804000   46.4942780000   47.3763618000
H   145   1     49.1028557000   48.1942368000   46.7497940000
C   146   6     47.7170372000   47.5000801000   44.7812805000
N   147   7     48.5402603000   48.4422379000   44.4227943000
C   148   6     48.5663185000   48.5559998000   42.9945793000
C   149   6     49.5760803000   49.2273026000   42.2564316000
C   150   6     50.4741859000   50.2139702000   42.6051521000
C   151   6     51.2581291000   50.7462997000   41.5281448000
C   152   6     52.2575417000   51.6646347000   41.7212601000
C   153   6     52.4824371000   52.2325935000   43.1020737000
C   154   6     51.6534119000   51.6827469000   44.1569901000
C   155   6     50.7473717000   50.6373253000   43.9428024000
H   156   1     50.1331482000   50.2415504000   44.7489700000
H   157   1     51.6037216000   52.2819366000   45.0320778000
O   158   8     53.4067574000   53.0423698000   43.3338966000
H   159   1     52.8651352000   52.0318832000   40.9283409000
H   160   1     50.9822655000   50.5061493000   40.5197563000
H   161   1     49.4394112000   49.0081444000   41.1659279000
C   162   6     47.5648460000   47.6921463000   42.4684105000
O   163   8     47.1789970000   47.3899460000   41.3375931000
N   164   7     46.9682159000   47.0895424000   43.5600319000
C   165   6     45.8473206000   46.1801987000   43.3368301000
C   166   6     44.5128174000   46.9165764000   43.4794807000
O   167   8     43.7524414000   47.0705070000   42.5357895000
H   168   1     45.9656487000   45.8968506000   42.2834778000
H   169   1     46.0476494000   45.3493080000   44.0047150000
N   170   7     44.1413803000   47.1777725000   44.7524185000
H   171   1     44.8388214000   46.9787598000   45.5391617000
C   172   6     42.8763161000   47.6845589000   45.2869072000
H   173   1     42.1051865000   47.0135155000   44.9662819000
C   174   6     43.0503693000   47.6213074000   46.8162117000
H   175   1     42.2158241000   48.0270576000   47.3657646000
H   176   1     43.2298355000   46.6183243000   47.2059784000
O   177   8     44.1307487000   48.4058075000   47.1612511000
H   178   1     44.0798225000   48.5940094000   48.1576614000
C   179   6     42.4795151000   49.1486435000   44.8540955000
O   180   8     41.9529724000   49.9187469000   45.6806374000
N   181   7     42.6747665000   49.5468178000   43.5560760000
H   182   1     43.1718750000   48.9916039000   42.8551254000
C   183   6     42.4304237000   50.8769150000   42.9249153000
H   184   1     42.9799728000   51.5453110000   43.6288605000
C   185   6     43.1029892000   50.9523621000   41.5681763000
H   186   1     42.6170197000   50.2171135000   40.9519424000
H   187   1     42.8329086000   51.8647423000   41.0516357000
C   188   6     44.5828018000   50.8228874000   41.4741211000
H   189   1     44.8549423000   49.8533630000   41.7691460000
H   190   1     44.8753395000   51.0578537000   40.3580666000
C   191   6     45.4645538000   51.5932655000   42.4793968000
H   192   1     45.2934952000   52.7000847000   42.2854271000
H   193   1     45.1401596000   51.3657990000   43.5245323000
C   194   6     46.9366112000   51.1502113000   42.2442703000
H   195   1     46.9725266000   50.1135941000   42.3375931000
H   196   1     47.2165833000   51.2971802000   41.1850662000
N   197   7     47.8726730000   51.7911148000   43.1969910000
H   198   1     47.8000832000   52.8109894000   43.0948334000
H   199   1     47.7542496000   51.4855576000   44.1785965000
H   200   1     48.9193954000   51.5560226000   43.0766678000
C   201   6     37.1664009000   46.0654411000   38.5533295000
H   202   1     37.7041130000   46.0428047000   37.6254921000
H   203   1     36.4156570000   46.8344955000   38.4927864000
C   204   6     38.1755180000   46.4331512000   39.6556587000
C   205   6     39.2584038000   45.5621796000   39.9720802000
H   206   1     39.4504128000   44.6490059000   39.4567642000
C   207   6     40.1340446000   45.8006973000   41.0289688000
H   208   1     40.9562454000   45.0918617000   41.1913147000
C   209   6     39.9629478000   46.9609871000   41.7801056000
H   210   1     40.6417389000   47.3751488000   42.4900055000
C   211   6     38.9098244000   47.8690186000   41.5072632000
H   212   1     38.8798943000   48.7285614000   42.1039925000
C   213   6     37.9811821000   47.5588684000   40.4818192000
H   214   1     37.1256256000   48.2604294000   40.2286568000
C   215   6     42.9514465000   44.2855988000   36.6851883000
H   216   1     43.6749611000   44.5960045000   35.9466095000
H   217   1     42.1091537000   45.0049438000   36.6688309000
C   218   6     43.6218987000   44.3581429000   38.0553627000
C   219   6     43.1441307000   45.1438522000   39.0654869000
H   220   1     42.1558609000   45.6981964000   38.9969177000
N   221   7     44.0298805000   45.0849991000   40.1202049000
H   222   1     43.8563614000   45.4503021000   41.0443535000
C   223   6     45.1459427000   44.2921448000   39.8840446000
C   224   6     46.2523193000   43.7997475000   40.6423798000
H   225   1     46.5044632000   44.0119247000   41.6136589000
C   226   6     47.1676636000   42.9976959000   39.9901505000
H   227   1     47.9018822000   42.5018692000   40.6398163000
C   228   6     47.0641251000   42.8075447000   38.6061287000
H   229   1     47.8929749000   42.2255287000   38.1976624000
C   230   6     46.0727119000   43.3978653000   37.8568420000
H   231   1     46.0014877000   43.3368301000   36.7212563000
C   232   6     44.9358978000   44.0027161000   38.4984894000
C   233   6     49.1085854000   43.2798920000   35.6306496000
H   234   1     48.1993942000   43.8610649000   35.8665695000
H   235   1     49.1798553000   42.5735512000   36.4569740000
C   236   6     50.3128891000   44.1506119000   35.8399353000
H   237   1     51.1973648000   43.6296043000   35.7391891000
H   238   1     50.3440933000   44.9322929000   35.0982170000
C   239   6     50.3477135000   44.6838341000   37.2652359000
H   240   1     50.3751984000   43.7949905000   37.9145851000
H   241   1     51.3158836000   45.2527390000   37.2945366000
N   242   7     49.4105759000   45.7548485000   37.5632706000
H   243   1     49.0534668000   46.3106842000   36.7969131000
C   244   6     49.0999756000   46.1942215000   38.7666245000
N   245   7     49.4394646000   45.5815125000   39.8737450000
H   246   1     49.9906197000   44.6918678000   39.8577919000
H   247   1     49.0773354000   45.9040680000   40.7269325000
N   248   7     48.3896103000   47.3291359000   38.8640747000
H   249   1     47.9742470000   47.7345619000   38.0621681000
H   250   1     48.0217552000   47.5357361000   39.7412834000
C   251   6     43.2797394000   41.3817291000   40.8250427000
H   252   1     44.3677597000   41.4635811000   40.9652176000
H   253   1     43.0856895000   41.9185982000   39.8801346000
C   254   6     42.4883041000   42.1030579000   41.9317665000
H   255   1     41.6029053000   42.5946770000   41.4827728000
H   256   1     42.1520691000   41.4086151000   42.7177010000
C   257   6     43.3234978000   43.1777039000   42.6850281000
O   258   8     42.9097443000   44.3117180000   42.8822708000
N   259   7     44.4665604000   42.8753624000   43.2232208000
H   260   1     44.9082565000   42.0000267000   43.0253296000
H   261   1     45.0924454000   43.5132980000   43.7428436000
C   262   6     59.5693016000   52.1164665000   45.2978477000
O   263   8     59.2635803000   52.6200447000   46.3980942000
N   264   7     59.8546181000   52.8834381000   44.2377892000
H   265   1     60.1650200000   52.5115585000   43.3534088000
C   266   6     59.7583160000   54.3234177000   44.2483215000
H   267   1     59.9596825000   54.7655411000   45.2287521000
C   268   6     60.6528244000   54.9704323000   43.1763115000
H   269   1     60.7459831000   54.2305374000   42.3802605000
H   270   1     60.2582016000   55.8957100000   42.8619003000
C   271   6     62.0120544000   55.4076042000   43.7786331000
H   272   1     62.4806175000   54.5403442000   44.2017746000
H   273   1     62.6428909000   55.7787285000   42.8487930000
C   274   6     61.9946518000   56.5348854000   44.8134537000
O   275   8     63.0307350000   56.7595673000   45.4196625000
O   276   8     60.9502487000   57.2131729000   44.9142380000
C   277   6     58.2927628000   54.7317276000   43.8216438000
O   278   8     57.6103287000   53.8845596000   43.3008804000
N   279   7     57.8873787000   55.9851227000   44.0873146000
H   280   1     58.5221138000   56.5589600000   44.5962753000
C   281   6     56.6124916000   56.5579529000   43.5733376000
H   282   1     55.7675476000   55.9617615000   43.9892921000
C   283   6     56.3389168000   57.9698868000   44.1118622000
H   284   1     57.1587830000   58.5799065000   43.8249207000
H   285   1     55.4452820000   58.3140564000   43.6415138000
H   286   1     56.2487221000   58.0669556000   45.1698494000
C   287   6     56.5559540000   56.3885880000   42.0625381000
O   288   8     57.5439453000   56.3761864000   41.3419495000
N   289   7     55.3724976000   56.2240601000   41.4501495000
H   290   1     54.6315193000   56.2661209000   42.1373215000
C   291   6     55.1697159000   55.8805618000   40.0040207000
H   292   1     56.0165558000   56.3065758000   39.4498291000
C   293   6     55.2289581000   54.3058968000   39.9414024000
H   294   1     56.0183754000   53.8704605000   40.5345688000
H   295   1     54.2262497000   54.0087433000   40.2987671000
S   296   16     55.4475327000   53.7165375000   38.1853447000
H   297   1     56.7926979000   53.7609100000   38.1304398000
C   298   6     53.3530655000   51.2165260000   35.2087822000
H   299   1     53.2227936000   50.1868591000   34.9267921000
H   300   1     54.1441574000   51.2938919000   35.9800262000
C   301   6     52.1284523000   51.9250488000   35.8277168000
H   302   1     52.3826523000   52.9678421000   35.7175369000
H   303   1     51.2192383000   51.7722893000   35.2636414000
S   304   16     51.7683182000   51.5181122000   37.5320320000
C   305   6     51.1362534000   49.8132133000   37.5092850000
H   306   1     51.9470940000   49.1403427000   37.7540932000
H   307   1     50.3409958000   49.6871872000   38.2910461000
H   308   1     50.7665443000   49.5488319000   36.5270844000
C   309   6     57.4948120000   49.9022141000   38.4506912000
H   310   1     57.8121109000   49.0216866000   37.9208374000
H   311   1     57.6852875000   49.8108482000   39.5210609000
C   312   6     56.0025864000   50.0034294000   38.4884491000
H   313   1     55.7901802000   51.0340271000   38.8817368000
H   314   1     55.6248016000   49.8866463000   37.5172310000
S   315   16     55.0880508000   48.9011536000   39.6028976000
C   316   6     55.1728859000   49.8136215000   41.1658478000
H   317   1     54.5070992000   49.3664780000   41.8995895000
H   318   1     56.2332993000   49.7754364000   41.4992104000
H   319   1     54.8561935000   50.8203812000   40.9437637000
C   320   6     41.3656807000   48.1691170000   35.0811844000
H   321   1     41.2316475000   48.9565582000   34.2932358000
H   322   1     40.4109535000   48.1888351000   35.6481781000
C   323   6     42.5620804000   48.5935135000   35.9400444000
C   324   6     42.6734352000   48.1064186000   37.2516785000
H   325   1     41.8238220000   47.6207924000   37.7356949000
C   326   6     43.8748779000   48.4266090000   37.9137115000
H   327   1     43.8696327000   48.0474548000   38.9571609000
C   328   6     44.9800949000   49.1261444000   37.3171692000
O   329   8     46.0632133000   49.5321121000   37.9970284000
H   330   1     46.6452446000   50.0869217000   37.4523010000
C   331   6     44.8685799000   49.4060974000   35.9512863000
H   332   1     45.6871490000   49.9230003000   35.4063454000
C   333   6     43.6222115000   49.1908264000   35.2589684000
H   334   1     43.5519829000   49.5007248000   34.2267075000
C   335   6     49.8147507000   58.2967072000   41.3582611000
O   336   8     48.6972771000   58.0357361000   41.7420158000
N   337   7     50.9138947000   57.6334076000   41.7931900000
H   338   1     51.8086281000   57.6266823000   41.2876549000
C   339   6     50.9126968000   56.4538269000   42.6791763000
H   340   1     50.0610809000   56.4806824000   43.3214989000
C   341   6     50.8774338000   55.1554832000   41.8542023000
H   342   1     50.5280457000   54.5445251000   42.6246071000
C   343   6     49.8328247000   55.0243721000   40.7948608000
H   344   1     49.9351845000   54.0378876000   40.3362694000
H   345   1     48.8429260000   55.1322479000   41.1358719000
H   346   1     50.0877228000   55.7882652000   40.0541992000
O   347   8     52.0967255000   54.8523140000   41.2688828000
H   348   1     52.6402473000   54.4356766000   41.9252243000
C   349   6     52.0056458000   56.5277939000   43.6151543000
O   350   8     53.1078300000   56.9354286000   43.3000336000
N   351   7     51.8050232000   55.9900703000   44.7795868000
H   352   1     50.8499870000   55.7443008000   45.0256577000
C   353   6     52.7678261000   55.6749268000   45.8522720000
H   354   1     53.6612396000   55.2788773000   45.3744812000
C   355   6     53.1958199000   56.9882164000   46.5773468000
H   356   1     54.0457458000   56.7152977000   47.2200584000
H   357   1     53.5551682000   57.7035522000   45.8583832000
C   358   6     52.0999680000   57.6265411000   47.3922806000
H   359   1     51.1410332000   57.6248360000   46.8157654000
H   360   1     51.9451294000   57.0305977000   48.1949043000
C   361   6     52.3997345000   59.0541878000   47.8576431000
H   362   1     51.7145691000   59.3186035000   48.6551704000
H   363   1     53.4620285000   59.0465698000   48.2612915000
C   364   6     52.2630615000   60.1163559000   46.7831802000
H   365   1     52.9896889000   59.9500656000   45.9068642000
H   366   1     51.2613373000   60.1166725000   46.4080811000
N   367   7     52.7237396000   61.3966560000   47.3658333000
H   368   1     53.6292267000   61.3823280000   47.7842255000
H   369   1     52.7032547000   62.1869316000   46.7774124000
H   370   1     52.0719986000   61.6917572000   48.0813599000
C   371   6     52.3737793000   54.5469208000   46.7805023000
O   372   8     51.2519646000   54.5722923000   47.1969986000
N   373   7     53.3726082000   53.7173462000   47.1637344000
H   374   1     54.2441483000   53.7418060000   46.5997734000
C   375   6     53.3072891000   52.7406120000   48.2502937000
H   376   1     52.5534515000   53.1099892000   48.8842926000
C   377   6     52.8213882000   51.3924637000   47.6968155000
H   378   1     52.3702087000   50.7858200000   48.5434494000
H   379   1     51.9914970000   51.6265488000   47.0898666000
C   380   6     53.8322105000   50.4501495000   46.9745827000
H   381   1     54.2964935000   51.0603867000   46.1635666000
C   382   6     54.8605766000   50.0341949000   48.0020103000
H   383   1     55.3884697000   49.1802788000   47.5358047000
H   384   1     55.5409012000   50.8328934000   48.0866432000
H   385   1     54.3994713000   49.9024010000   48.9288635000
C   386   6     53.2208481000   49.1394615000   46.4298820000
H   387   1     52.5798264000   49.4236984000   45.6329918000
H   388   1     53.9697418000   48.4545898000   46.1059761000
H   389   1     52.5899086000   48.6388931000   47.2310867000
C   390   6     52.7187881000   47.2005043000   55.6159286000
O   391   8     53.8847809000   47.4145164000   55.3025017000
N   392   7     51.7627678000   47.9033051000   55.0975800000
H   393   1     50.8588982000   47.7446747000   55.4105225000
C   394   6     51.8890839000   48.7716331000   53.9212875000
H   395   1     52.9224548000   49.1211510000   53.8606339000
C   396   6     51.6268234000   48.0349541000   52.5129738000
H   397   1     50.6364670000   47.6522751000   52.4112320000
H   398   1     51.8251228000   48.7306557000   51.7451820000
C   399   6     52.6223679000   46.8507080000   52.3155594000
H   400   1     53.6341667000   47.1221695000   52.7057076000
H   401   1     52.3126450000   45.9596443000   52.8561325000
C   402   6     52.8771019000   46.3790703000   50.9086227000
O   403   8     53.7756348000   45.6050682000   50.5955544000
N   404   7     52.1558990000   46.8488235000   49.9142036000
H   405   1     51.5518112000   47.6061440000   50.0874481000
H   406   1     52.1962814000   46.3209381000   49.0217896000
C   407   6     50.9134903000   49.9411469000   54.0611343000
O   408   8     49.8719978000   49.8390121000   54.6743431000
N   409   7     51.3802910000   51.0242233000   53.4983978000
H   410   1     52.3671684000   51.0486526000   53.0815735000
C   411   6     50.7201614000   52.2902985000   53.1596527000
H   412   1     49.7560654000   52.3090897000   53.5398865000
C   413   6     51.4626083000   53.4505615000   53.9019699000
H   414   1     51.2044525000   53.5130157000   54.9437332000
H   415   1     52.5300751000   53.1491165000   53.7889824000
C   416   6     51.2725983000   54.8796043000   53.2756882000
C   417   6     52.2283974000   55.4318619000   52.3027649000
H   418   1     53.1006622000   54.8073540000   52.0715256000
C   419   6     51.9625664000   56.5829697000   51.5434608000
H   420   1     52.6172867000   56.8798904000   50.6984367000
C   421   6     50.9070892000   57.3914490000   52.0010567000
O   422   8     50.8699989000   58.6673889000   51.5315704000
H   423   1     50.0698624000   59.1562462000   51.8040428000
C   424   6     50.0474319000   56.9502716000   52.9960251000
H   425   1     49.2429810000   57.5772057000   53.3729858000
C   426   6     50.2048416000   55.7463989000   53.6458244000
H   427   1     49.6171875000   55.3774223000   54.4205055000
C   428   6     50.7356606000   52.4331665000   51.6659584000
O   429   8     51.7132950000   52.0170822000   50.9886322000
N   430   7     49.6756592000   53.0581131000   51.1182709000
H   431   1     48.9214363000   53.1978302000   51.7486877000
C   432   6     49.5362244000   53.3916855000   49.6922302000
H   433   1     50.5300903000   53.6578522000   49.2966385000
C   434   6     49.0853424000   52.0437698000   49.0510750000
H   435   1     49.7693214000   51.2331352000   49.2814674000
H   436   1     48.1307907000   51.6803017000   49.5092163000
C   437   6     48.9999352000   51.9568863000   47.5267944000
H   438   1     49.8295059000   52.5898438000   47.0860672000
H   439   1     49.0929489000   50.8905640000   47.1993980000
C   440   6     47.6213493000   52.3080673000   46.9208870000
O   441   8     46.7655640000   52.8883324000   47.6119080000
O   442   8     47.4219894000   51.9004211000   45.8181229000
C   443   6     48.6452179000   54.6162376000   49.3918991000
O   444   8     47.7816315000   55.0036201000   50.2245255000
N   445   7     48.7622490000   55.2490044000   48.2361832000
H   446   1     49.4421539000   54.8893509000   47.6223907000
C   447   6     47.9219437000   56.3798561000   47.7626228000
H   448   1     46.8606262000   56.1632843000   47.9552803000
C   449   6     48.2872314000   57.6883163000   48.5730057000
H   450   1     48.0199280000   57.5203094000   49.5816040000
H   451   1     49.3849716000   57.5940552000   48.6350060000
C   452   6     47.8325882000   59.0500717000   48.0736542000
H   453   1     48.1627235000   59.2924500000   47.1281013000
H   454   1     46.7767868000   59.2405510000   47.9721603000
C   455   6     48.2450829000   60.2440414000   48.8901138000
H   456   1     49.2989693000   60.3904419000   49.0109062000
H   457   1     47.9190254000   60.9781303000   48.2050095000
N   458   7     47.5192032000   60.4772377000   50.1561012000
H   459   1     47.7992096000   59.9542084000   51.0033798000
C   460   6     46.4765892000   61.2911224000   50.4040146000
N   461   7     45.8931541000   62.0365143000   49.4449310000
H   462   1     46.3733864000   62.1059227000   48.5634079000
H   463   1     45.0656548000   62.5564613000   49.6232147000
N   464   7     46.0289383000   61.4221725000   51.6389465000
H   465   1     46.4741554000   60.9213676000   52.3826408000
H   466   1     45.5212631000   62.3058853000   51.7710037000
C   467   6     47.9662895000   56.5409393000   46.2337189000
O   468   8     48.9310608000   56.1111755000   45.5459061000
N   469   7     46.9185448000   57.1603203000   45.7152138000
H   470   1     46.1705742000   57.4939575000   46.3413773000
C   471   6     46.7366714000   57.4087830000   44.3095970000
H   472   1     47.6884804000   57.3995171000   43.7568245000
C   473   6     45.8784676000   56.2773361000   43.7971840000
H   474   1     44.8646774000   56.5023193000   44.0898552000
H   475   1     45.9880257000   56.4031639000   42.6745529000
C   476   6     46.4180336000   54.8419876000   43.9774933000
O   477   8     47.2817154000   54.3978958000   43.2254715000
N   478   7     45.9918747000   54.0986404000   45.0021973000
H   479   1     46.4810638000   53.2863312000   45.2591362000
H   480   1     45.4033852000   54.4166260000   45.6573257000
H   481   1     39.0816837323   45.3869611813   52.3578101137
H   482   1     44.5530198145   56.0926216365   50.5377958779
H   483   1     47.8057315350   46.4436035288   55.1873600777
H   484   1     49.6854253824   40.9104025991   54.9644678862