[Molden Format]
[Title]
Written by TeraChem
[Atoms] Angs
C   1   6     39.2476273000   45.4051743000   51.9129639000
H   2   1     39.0814056000   44.7031631000   51.0698242000
H   3   1     38.7183456000   46.2732506000   51.6177177000
C   4   6     40.7561111000   45.8105545000   51.9094887000
C   5   6     41.6690598000   44.8333931000   51.6476898000
H   6   1     41.3665352000   43.7415237000   51.4875946000
C   7   6     43.0389366000   45.1427078000   51.5757599000
H   8   1     43.8261566000   44.4295273000   51.4177170000
C   9   6     43.4249306000   46.4939270000   51.6203880000
H   10   1     44.4757881000   46.6834869000   51.6958466000
C   11   6     42.5196991000   47.5259705000   51.7852478000
H   12   1     42.8240433000   48.5135651000   51.8731270000
C   13   6     41.1641541000   47.2000160000   51.8878746000
H   14   1     40.4224777000   47.9501038000   51.9976501000
C   15   6     44.2781143000   54.7945862000   51.3233948000
O   16   8     43.1131363000   54.7432671000   51.6744576000
N   17   7     45.1795349000   53.8103828000   51.5689163000
H   18   1     46.1608849000   54.0281372000   51.3725052000
C   19   6     44.8920441000   52.6018486000   52.3092880000
H   20   1     44.1354523000   52.8120956000   53.0748177000
C   21   6     44.3398361000   51.5075302000   51.3931198000
H   22   1     44.0436897000   50.6164169000   52.0050240000
H   23   1     43.4688950000   51.8409195000   50.8713760000
C   24   6     45.4223404000   51.0707436000   50.3980331000
H   25   1     45.7544556000   52.0008507000   49.9117088000
H   26   1     46.3691406000   50.7418900000   50.9392776000
C   27   6     44.9601898000   50.1883240000   49.2570152000
O   28   8     44.4476738000   49.1080627000   49.5249939000
N   29   7     45.0946121000   50.5045090000   47.9778252000
H   30   1     45.5986862000   51.3323822000   47.6726570000
H   31   1     44.8284454000   49.8172760000   47.2586403000
C   32   6     46.1424484000   52.0834351000   53.1051483000
O   33   8     47.2674484000   52.5324097000   52.9418030000
N   34   7     45.9524498000   50.9879494000   53.8811417000
H   35   1     44.9623947000   50.5702896000   54.0268669000
C   36   6     46.9899750000   50.2668152000   54.6968880000
H   37   1     47.8242149000   50.3190460000   53.9796791000
C   38   6     47.3232040000   50.9278297000   56.1153183000
H   39   1     47.9849777000   50.2364197000   56.6134834000
C   40   6     48.0395813000   52.2693291000   56.1358719000
H   41   1     47.5288696000   53.0134735000   55.4537659000
H   42   1     48.1594620000   52.5958328000   57.1739044000
H   43   1     49.0358582000   52.0895767000   55.7433624000
O   44   8     46.2143326000   51.0273705000   56.9149323000
H   45   1     45.9252319000   50.1658859000   57.2224846000
C   46   6     46.4688301000   48.9007263000   54.9272385000
O   47   8     45.2764320000   48.6391487000   55.1501427000
N   48   7     47.3763466000   47.8898087000   54.9584618000
H   49   1     48.3691025000   48.0889473000   54.9533806000
C   50   6     46.9945564000   46.4368401000   55.0967178000
H   51   1     46.0857735000   46.2987099000   55.6586227000
C   52   6     46.8254852000   45.9054489000   53.7119293000
H   53   1     46.0876999000   46.5531235000   53.2121048000
H   54   1     47.8256302000   46.0127068000   53.1908379000
H   55   1     46.5039406000   44.8753395000   53.6126633000
C   56   6     49.7505188000   40.1454544000   53.6262589000
H   57   1     50.8159866000   40.0575027000   53.5182953000
H   58   1     49.2321358000   39.2482910000   53.2532043000
C   59   6     49.3803711000   41.2255173000   52.5856552000
H   60   1     49.5839310000   41.0062714000   51.5432205000
C   61   6     47.8657303000   41.4522209000   52.5733795000
H   62   1     47.6230087000   42.4487991000   52.1062775000
H   63   1     47.3879280000   40.5701523000   52.1761703000
H   64   1     47.5574799000   41.6692924000   53.6502228000
C   65   6     50.1811295000   42.4621391000   52.9597244000
H   66   1     51.2599754000   42.2217140000   53.1004639000
H   67   1     50.2081757000   43.2075653000   52.2179489000
H   68   1     49.9899864000   42.8542328000   53.9997902000
C   69   6     53.0655136000   42.6647797000   45.5234375000
O   70   8     51.8594780000   42.6781616000   45.6333694000
N   71   7     53.8335228000   43.6927719000   45.9284363000
H   72   1     54.8660965000   43.5377693000   46.0299492000
C   73   6     53.1933937000   44.8151207000   46.6275215000
H   74   1     52.4698448000   44.3381042000   47.3483620000
C   75   6     54.2115784000   45.7995644000   47.2447624000
H   76   1     54.9086418000   46.1951027000   46.4675903000
H   77   1     53.6686516000   46.6040421000   47.7824821000
O   78   8     54.9357643000   45.0815048000   48.2359085000
H   79   1     54.3645096000   44.8494034000   48.9706192000
C   80   6     52.3096008000   45.6865845000   45.7379837000
O   81   8     51.2850990000   46.1923294000   46.2525787000
N   82   7     52.5474586000   45.8994217000   44.3897629000
C   83   6     53.8507309000   45.7253990000   43.7229958000
H   84   1     53.9052925000   44.8787079000   43.1822739000
H   85   1     54.6926155000   45.8503113000   44.3772850000
C   86   6     53.9761658000   46.8321648000   42.7423820000
H   87   1     54.5706100000   46.5518265000   41.8239136000
H   88   1     54.3292236000   47.7720070000   43.1768379000
C   89   6     52.4799767000   46.9810181000   42.2916031000
H   90   1     52.1959229000   46.2292252000   41.5363884000
H   91   1     52.1456528000   47.9797287000   42.0259171000
C   92   6     51.6447029000   46.6438103000   43.5722809000
H   93   1     51.2733612000   47.5092545000   44.1087494000
C   94   6     50.3937492000   45.8115997000   43.1670723000
O   95   8     49.7473068000   46.1586838000   42.2063370000
N   96   7     50.0895119000   44.6874771000   43.8040314000
H   97   1     50.5564156000   44.4598846000   44.7468567000
C   98   6     49.2189636000   43.6867714000   43.3873367000
H   99   1     48.7525024000   43.9470291000   42.4327126000
C   100   6     50.0126228000   42.4203644000   43.0149460000
H   101   1     50.0193176000   41.7540512000   43.9615440000
H   102   1     49.3845749000   41.8166275000   42.4108429000
C   103   6     51.3617706000   42.5503883000   42.3730888000
H   104   1     52.0488892000   43.1171379000   42.9888573000
H   105   1     51.8236580000   41.5205765000   42.3774529000
C   106   6     51.4793053000   43.1394234000   40.9756622000
O   107   8     50.6644058000   43.6226044000   40.2433701000
N   108   7     52.7154694000   43.0328522000   40.4656029000
H   109   1     53.4869614000   42.4701080000   40.8898087000
H   110   1     52.8178711000   43.5564041000   39.5361519000
C   111   6     48.0346298000   43.4430923000   44.3419647000
O   112   8     47.0698090000   42.8308716000   43.9427185000
N   113   7     48.1450958000   43.9224548000   45.5653458000
H   114   1     48.9978218000   44.3408127000   45.8484879000
C   115   6     47.0752335000   43.8551788000   46.4741478000
H   116   1     46.3270226000   43.0802231000   46.2104187000
C   117   6     47.5209656000   43.5695419000   47.9173126000
H   118   1     48.2052269000   44.4336662000   48.2625160000
H   119   1     46.6217422000   43.5380173000   48.5793304000
C   120   6     48.4517441000   42.4046173000   48.1950607000
C   121   6     49.8661652000   42.4785004000   48.1786041000
H   122   1     50.3393135000   43.4874802000   48.1370773000
C   123   6     50.6661949000   41.3192711000   48.4333115000
H   124   1     51.6710052000   41.4713058000   48.4720535000
C   125   6     50.0302200000   40.0556030000   48.6257896000
H   126   1     50.6623497000   39.1536789000   48.7556763000
C   127   6     48.6251221000   39.9762192000   48.4603157000
H   128   1     48.1046486000   39.0089340000   48.6090775000
C   129   6     47.8158531000   41.1721382000   48.3548775000
H   130   1     46.7406044000   41.0648041000   48.2809105000
C   131   6     46.1929665000   45.0802765000   46.4703293000
O   132   8     45.0921707000   45.1880684000   47.0204506000
N   133   7     46.5300674000   46.0569191000   45.4772758000
C   134   6     46.9571457000   47.2819443000   45.5828323000
C   135   6     47.3155289000   48.0071487000   46.8753815000
C   136   6     48.6968994000   47.6601334000   47.4192848000
S   137   16     49.0059509000   48.1868210000   49.1249123000
C   138   6     47.6663628000   47.3695030000   49.9707756000
H   139   1     47.6591339000   46.2207069000   49.9484253000
H   140   1     47.6829834000   47.6861534000   50.9501343000
H   141   1     46.7027435000   47.6777649000   49.5452042000
H   142   1     48.8551521000   46.5750198000   47.3292542000
H   143   1     49.3788147000   48.1868362000   46.7372284000
H   144   1     47.1538620000   49.0959587000   46.6646652000
H   145   1     46.5198669000   47.7019424000   47.5267105000
C   146   6     47.2938766000   47.9619980000   44.3260193000
N   147   7     48.3143387000   48.7711945000   44.2288246000
C   148   6     48.5601616000   48.8931427000   42.8845291000
C   149   6     49.6251144000   49.5057373000   42.2218018000
C   150   6     50.6414108000   50.3218803000   42.6563606000
C   151   6     51.5381584000   50.8718071000   41.6417770000
C   152   6     52.3771706000   51.8811646000   42.0047531000
C   153   6     52.4544525000   52.3970985000   43.3511810000
C   154   6     51.4227371000   51.8992157000   44.2997360000
C   155   6     50.6316681000   50.8514023000   43.9727783000
H   156   1     49.9384460000   50.3343887000   44.7653236000
H   157   1     51.2947769000   52.4464874000   45.1719208000
O   158   8     53.2978020000   53.2944946000   43.6967049000
H   159   1     53.1362495000   52.3134956000   41.3570709000
H   160   1     51.3613701000   50.5695419000   40.6255875000
H   161   1     49.5138397000   49.1709976000   41.1987839000
C   162   6     47.5633621000   48.1642189000   42.0937424000
O   163   8     47.2995529000   48.0625153000   40.9135513000
N   164   7     46.7851868000   47.5609169000   43.1095276000
C   165   6     45.7911606000   46.6785736000   42.7574501000
C   166   6     44.3822517000   47.2105789000   43.0328674000
O   167   8     43.6385384000   47.6354027000   42.1961555000
H   168   1     45.7493744000   46.5640640000   41.6648026000
H   169   1     45.9761620000   45.7341576000   43.3467331000
N   170   7     44.1061211000   47.3407974000   44.3333359000
H   171   1     44.8000755000   47.1278763000   45.0571976000
C   172   6     42.8663063000   47.9349556000   44.8903847000
H   173   1     41.9710388000   47.4077911000   44.4966049000
C   174   6     42.8246727000   47.6402512000   46.4254951000
H   175   1     42.0038681000   48.1585693000   46.9906845000
H   176   1     42.6877899000   46.5075073000   46.6156235000
O   177   8     44.0498390000   47.9824295000   46.9943161000
H   178   1     43.9535675000   48.2374191000   47.9525909000
C   179   6     42.6168671000   49.4471741000   44.6006622000
O   180   8     42.1375351000   50.1525116000   45.5124474000
N   181   7     42.7614441000   49.9384651000   43.3788605000
H   182   1     43.1823959000   49.2819252000   42.7717514000
C   183   6     42.3344193000   51.1697617000   42.8602905000
H   184   1     42.8211250000   51.9637299000   43.3863144000
C   185   6     42.8018188000   51.2497520000   41.3966446000
H   186   1     42.2840691000   50.5515099000   40.7165604000
H   187   1     42.5479164000   52.1828117000   41.0824242000
C   188   6     44.3460007000   51.1793213000   40.9962807000
H   189   1     44.6547241000   50.2028656000   40.7723083000
H   190   1     44.5273018000   51.7461014000   40.0548630000
C   191   6     45.2206001000   51.5726662000   42.1919403000
H   192   1     45.1315308000   52.6262665000   42.4273109000
H   193   1     45.0480881000   50.8765488000   43.0545502000
C   194   6     46.6981468000   51.4618759000   41.7993355000
H   195   1     46.9171906000   50.4797821000   41.6508827000
H   196   1     46.9441643000   52.1640053000   40.9462776000
N   197   7     47.5345268000   51.7578583000   42.9058075000
H   198   1     47.4589996000   52.7461586000   43.2185059000
H   199   1     47.2907257000   51.3087540000   43.7938156000
H   200   1     48.5403481000   51.6323051000   42.7059364000
C   201   6     36.7347145000   46.9202995000   38.9925346000
H   202   1     37.2776108000   46.9860840000   37.9794807000
H   203   1     35.9384575000   47.6736870000   38.9557266000
C   204   6     37.7761459000   47.2596741000   40.0712013000
C   205   6     39.0824471000   46.9830399000   39.7289658000
H   206   1     39.3794327000   46.5390701000   38.7890892000
C   207   6     40.1178741000   47.4651794000   40.6215363000
H   208   1     41.1720085000   47.2913933000   40.4575348000
C   209   6     39.7973595000   48.1621742000   41.7753143000
H   210   1     40.5296173000   48.3910751000   42.5377121000
C   211   6     38.4267426000   48.4369087000   42.0221901000
H   212   1     38.2345505000   48.9908791000   42.9002075000
C   213   6     37.4059982000   47.9862671000   41.2049179000
H   214   1     36.3967171000   48.2534561000   41.3777618000
C   215   6     43.0634995000   44.9287376000   36.4668427000
H   216   1     43.9669228000   45.1334076000   35.8782043000
H   217   1     42.5004120000   45.8287811000   36.4063301000
C   218   6     43.7192116000   44.8467789000   37.9227753000
C   219   6     43.1413193000   45.4967079000   38.9871216000
H   220   1     42.2578049000   46.0691414000   38.8810501000
N   221   7     43.9989243000   45.3382416000   40.1027603000
H   222   1     43.7399368000   45.8473930000   40.9629745000
C   223   6     45.1236420000   44.5800819000   39.8194084000
C   224   6     46.2212181000   44.0911560000   40.5778198000
H   225   1     46.4103012000   44.2565765000   41.6157837000
C   226   6     47.1911697000   43.3608856000   39.8528938000
H   227   1     48.0061378000   42.8859367000   40.4384193000
C   228   6     47.0379257000   43.1332054000   38.4724121000
H   229   1     47.7858696000   42.5674057000   37.9229202000
C   230   6     45.9266090000   43.5975609000   37.7728806000
H   231   1     45.6707458000   43.2496223000   36.7692299000
C   232   6     44.9774742000   44.3595848000   38.4115715000
C   233   6     48.7628365000   43.9045792000   35.1028671000
H   234   1     48.0301743000   44.6937943000   35.2076530000
H   235   1     48.5494308000   43.2429352000   36.0044060000
C   236   6     50.1808968000   44.5265121000   35.4726791000
H   237   1     50.9413147000   43.7195053000   35.3713493000
H   238   1     50.5183563000   45.2934608000   34.7902603000
C   239   6     50.2113304000   45.0771904000   36.9030724000
H   240   1     49.7793541000   44.3097229000   37.5348129000
H   241   1     51.2453804000   45.1579323000   37.2605095000
N   242   7     49.4613304000   46.4049911000   37.0419998000
H   243   1     49.3333130000   47.0012703000   36.2314949000
C   244   6     48.8529625000   46.8299828000   38.1508980000
N   245   7     49.0245094000   46.1809158000   39.2525444000
H   246   1     49.5890007000   45.3398361000   39.2457848000
H   247   1     48.6257133000   46.4727478000   40.1797905000
N   248   7     48.1197357000   47.9281273000   38.2206116000
H   249   1     47.8482246000   48.4452591000   37.3574028000
H   250   1     47.8306580000   48.2249031000   39.1307144000
C   251   6     43.2787895000   42.2282066000   41.1123199000
H   252   1     44.4021988000   42.3959312000   41.1852837000
H   253   1     42.9359360000   43.0619774000   40.4983292000
C   254   6     42.6675491000   42.3629570000   42.5081062000
H   255   1     41.5861893000   42.4417038000   42.3991852000
H   256   1     42.8237572000   41.5378418000   43.2643471000
C   257   6     43.1072311000   43.6687622000   43.0462837000
O   258   8     42.4465179000   44.6853714000   42.8621864000
N   259   7     44.1604958000   43.6854706000   43.7856331000
H   260   1     44.8191147000   42.8724327000   43.6744614000
H   261   1     44.5352325000   44.6070023000   44.0679169000
C   262   6     59.1836166000   52.6044922000   45.2998505000
O   263   8     58.6948204000   53.2495918000   46.2314949000
N   264   7     59.8441544000   53.1488571000   44.2996826000
H   265   1     60.1351929000   52.5840797000   43.5181122000
C   266   6     59.7795334000   54.5354118000   44.0698547000
H   267   1     59.9974480000   55.0923615000   45.0379906000
C   268   6     60.9523926000   54.8322296000   43.0606537000
H   269   1     61.8542862000   54.7203865000   43.6722412000
H   270   1     60.9042358000   54.1322784000   42.2039833000
C   271   6     61.0487061000   56.2627831000   42.5195084000
H   272   1     61.9061813000   56.2939682000   41.8075638000
H   273   1     60.1400795000   56.6453362000   42.0793076000
C   274   6     61.4983940000   57.2549210000   43.5710983000
O   275   8     62.7111206000   57.6541061000   43.4673500000
O   276   8     60.7731056000   57.6183357000   44.5249634000
C   277   6     58.3353424000   54.9589119000   43.5469398000
O   278   8     57.4513626000   54.1329613000   43.1308670000
N   279   7     57.9777870000   56.2493591000   43.7033463000
H   280   1     58.6556473000   56.9252357000   43.9788437000
C   281   6     56.6609612000   56.7214775000   43.4858093000
H   282   1     55.8401489000   56.2225685000   44.0563660000
C   283   6     56.4962234000   58.1725540000   43.9175453000
H   284   1     56.7388191000   58.1573257000   45.0070114000
H   285   1     57.2154694000   58.8416710000   43.3520088000
H   286   1     55.4312477000   58.5205460000   43.7473984000
C   287   6     56.3969002000   56.6976128000   41.9340324000
O   288   8     57.3346672000   56.8375626000   41.1803741000
N   289   7     55.1207390000   56.6411781000   41.4785385000
H   290   1     54.3619957000   56.8251877000   42.1015739000
C   291   6     54.8552742000   56.2905693000   40.0965500000
H   292   1     55.7657967000   56.5618591000   39.5722542000
C   293   6     54.6974754000   54.7511482000   39.9585037000
H   294   1     55.5104904000   54.2648888000   40.5500717000
H   295   1     53.6684074000   54.4635201000   40.1980667000
S   296   16     54.8782005000   54.2623940000   38.1914940000
H   297   1     54.5589485000   52.9757004000   38.4828911000
C   298   6     53.0670128000   51.9811440000   35.5769768000
H   299   1     52.8390884000   51.0067749000   35.3143692000
H   300   1     53.9362297000   52.0176315000   36.1711845000
C   301   6     51.8891716000   52.6270905000   36.3071747000
H   302   1     52.1686783000   53.6423149000   36.4485550000
H   303   1     50.9600983000   52.5803146000   35.7752190000
S   304   16     51.7322121000   51.8912277000   37.8758545000
C   305   6     51.0171280000   50.2168427000   37.5514374000
H   306   1     51.6668129000   49.6066856000   36.9604073000
H   307   1     50.9561119000   49.6512184000   38.4672585000
H   308   1     50.0464821000   50.2294083000   37.0746002000
C   309   6     57.1883545000   50.4759674000   38.1181488000
H   310   1     57.4195442000   49.5505524000   37.5109825000
H   311   1     57.4127655000   50.3201256000   39.1830521000
C   312   6     55.6819534000   50.7530365000   37.9594879000
H   313   1     55.4226837000   51.6559982000   38.5232048000
H   314   1     55.4605942000   50.7961349000   36.9112091000
S   315   16     54.6383362000   49.3883133000   38.5805588000
C   316   6     54.6950340000   49.5412979000   40.3461456000
H   317   1     53.6798172000   49.5767746000   40.7958298000
H   318   1     55.2188110000   48.6445847000   40.6278534000
H   319   1     55.3193436000   50.4046021000   40.6309471000
C   320   6     41.1443481000   48.7014580000   35.1128807000
H   321   1     40.9208374000   49.4713287000   34.3798866000
H   322   1     40.3534317000   48.7435188000   35.8331604000
C   323   6     42.4710045000   48.9913635000   35.7428131000
C   324   6     42.6582680000   48.5335846000   37.0421143000
H   325   1     41.8972206000   47.9025307000   37.5423927000
C   326   6     43.7398186000   49.0114555000   37.8084793000
H   327   1     43.9358940000   48.6679459000   38.7942429000
C   328   6     44.7616386000   49.7939987000   37.2171898000
O   329   8     45.8722725000   50.3223953000   37.8329315000
H   330   1     46.3117943000   50.9692535000   37.2278748000
C   331   6     44.5628319000   50.1402817000   35.8548393000
H   332   1     45.2712021000   50.8019333000   35.3834991000
C   333   6     43.4192848000   49.7785187000   35.1506424000
H   334   1     43.1905327000   50.2357521000   34.2098198000
C   335   6     49.7684669000   58.3118019000   41.8528557000
O   336   8     48.7546539000   58.2836952000   42.5438499000
N   337   7     50.8145447000   57.6187134000   42.1438904000
H   338   1     51.6343689000   57.7236328000   41.6104317000
C   339   6     50.8895836000   56.5537987000   43.1464920000
H   340   1     49.9824295000   56.5722885000   43.7201309000
C   341   6     50.7668991000   55.2146606000   42.4819603000
H   342   1     50.7092209000   54.4715309000   43.2544289000
C   343   6     49.5996246000   55.0660400000   41.4948463000
H   344   1     49.8784828000   55.4509392000   40.5493622000
H   345   1     49.4293518000   53.9727325000   41.3368568000
H   346   1     48.7649460000   55.6454163000   41.9358902000
O   347   8     51.8544159000   54.9821320000   41.6398430000
H   348   1     52.6610489000   54.8777390000   42.1883621000
C   349   6     52.0769196000   56.6589050000   44.0347214000
O   350   8     53.2274399000   56.8687363000   43.6444321000
N   351   7     51.9197845000   56.2796783000   45.2994385000
H   352   1     50.9669724000   56.0848160000   45.6602287000
C   353   6     53.0130768000   56.1365967000   46.3130379000
H   354   1     53.9980888000   55.8581123000   45.8641510000
C   355   6     53.2545052000   57.3888969000   47.1261749000
H   356   1     52.3179283000   57.6886597000   47.5716820000
H   357   1     53.8918762000   57.0997963000   47.9214668000
C   358   6     53.8051300000   58.6260910000   46.3659134000
H   359   1     54.8007584000   58.3364410000   45.9435959000
H   360   1     53.1552162000   58.8409653000   45.4718704000
C   361   6     53.9188461000   59.8184929000   47.3467255000
H   362   1     53.0730629000   59.9088287000   47.9759178000
H   363   1     54.7106361000   59.5827637000   48.0783882000
C   364   6     54.2548218000   61.1563110000   46.5872803000
H   365   1     55.3657227000   61.2804718000   46.4645386000
H   366   1     53.9147568000   61.1722336000   45.5681572000
N   367   7     53.8301926000   62.4075508000   47.2159233000
H   368   1     54.0588341000   63.2567787000   46.6359329000
H   369   1     52.8158989000   62.4221764000   47.3524437000
H   370   1     54.3336105000   62.5209770000   48.1186295000
C   371   6     52.6367416000   54.9360199000   47.1391525000
O   372   8     51.4678230000   54.5694199000   47.2583427000
N   373   7     53.6113815000   54.1568756000   47.6603737000
H   374   1     54.5636330000   54.4554329000   47.5573120000
C   375   6     53.4116821000   52.8988457000   48.3471985000
H   376   1     52.5583076000   52.8963432000   49.0694656000
C   377   6     53.2149353000   51.7880974000   47.2230110000
H   378   1     52.1964951000   51.8415604000   46.9852524000
H   379   1     53.7129822000   52.1199265000   46.2936211000
C   380   6     53.6251411000   50.3106766000   47.4939041000
H   381   1     54.7017288000   50.3748779000   47.8152847000
C   382   6     52.7084503000   49.6159821000   48.4163322000
H   383   1     52.9930840000   48.6199341000   48.7575302000
H   384   1     52.5960350000   50.1776352000   49.3048859000
H   385   1     51.8248901000   49.4726486000   47.8985405000
C   386   6     53.6483078000   49.4664993000   46.1935959000
H   387   1     53.6710777000   48.4242287000   46.4357681000
H   388   1     52.6488533000   49.5285950000   45.7072449000
H   389   1     54.4078102000   49.8907928000   45.5650482000
C   390   6     52.7505951000   46.3398819000   55.4428291000
O   391   8     53.8979340000   46.4884148000   54.9565353000
N   392   7     51.6785889000   46.9512024000   54.8523102000
H   393   1     50.8188324000   46.8322716000   55.3341446000
C   394   6     51.7191086000   47.8257294000   53.6968155000
H   395   1     52.7765274000   48.1305771000   53.5033493000
C   396   6     51.3122139000   47.0050240000   52.4702110000
H   397   1     50.7152519000   46.1524162000   52.8318176000
H   398   1     50.8202019000   47.5944519000   51.7744102000
C   399   6     52.6276054000   46.4348221000   51.7727737000
H   400   1     53.2091446000   47.3193970000   51.5034676000
H   401   1     53.1620979000   45.7387543000   52.3980370000
C   402   6     52.4497681000   45.6566925000   50.5064316000
O   403   8     53.2229843000   44.7240982000   50.2218399000
N   404   7     51.4422417000   45.9860764000   49.7121468000
H   405   1     50.9281845000   46.8126831000   49.8925819000
H   406   1     51.4290047000   45.5972443000   48.7047501000
C   407   6     50.9597702000   49.1328049000   53.9194832000
O   408   8     50.0643845000   49.1858330000   54.7650833000
N   409   7     51.3006172000   50.1764755000   53.1660004000
H   410   1     52.1544495000   50.1012802000   52.6166534000
C   411   6     50.6575050000   51.4686127000   53.0703583000
H   412   1     49.5785294000   51.2983246000   53.2975426000
C   413   6     51.2838936000   52.5467300000   54.0202637000
H   414   1     50.9998894000   52.2501335000   55.0602341000
H   415   1     52.3118401000   52.4384384000   54.1006927000
C   416   6     50.9523354000   54.0371475000   53.6594543000
C   417   6     49.7977982000   54.7241898000   54.1474533000
H   418   1     49.0500565000   54.1791306000   54.6989403000
C   419   6     49.5791931000   56.0129013000   53.7174187000
H   420   1     48.6794090000   56.5412827000   54.1133423000
C   421   6     50.4632645000   56.7034340000   52.8449173000
O   422   8     50.2264748000   58.0021896000   52.4544716000
H   423   1     51.0174904000   58.4327850000   52.1857491000
C   424   6     51.6160812000   56.0051193000   52.3706436000
H   425   1     52.3242264000   56.3769684000   51.6714401000
C   426   6     51.8360329000   54.6465073000   52.7515182000
H   427   1     52.7277756000   54.0481606000   52.4062386000
C   428   6     50.7169800000   51.9261208000   51.6185570000
O   429   8     51.7361641000   51.7877007000   51.0355606000
N   430   7     49.6559944000   52.5616379000   51.1451263000
H   431   1     48.8372955000   52.6952362000   51.7584686000
C   432   6     49.4869385000   52.9311714000   49.7916336000
H   433   1     50.4451447000   53.1039467000   49.3443222000
C   434   6     48.9204941000   51.7633781000   48.9650803000
H   435   1     49.7253799000   51.0093651000   49.1429062000
H   436   1     47.9306831000   51.4668045000   49.2571335000
C   437   6     48.9144058000   51.9286308000   47.4167862000
H   438   1     49.5883598000   52.7132950000   47.1380692000
H   439   1     49.3325500000   51.0266457000   47.0617867000
C   440   6     47.4740753000   52.1698799000   46.7767639000
O   441   8     46.6534576000   52.8134232000   47.4479637000
O   442   8     47.1768913000   51.6420593000   45.6875839000
C   443   6     48.6446457000   54.2086334000   49.7487488000
O   444   8     47.7220345000   54.3805885000   50.5642891000
N   445   7     48.9543877000   55.0999870000   48.7368469000
H   446   1     49.6810837000   54.8066864000   48.1406021000
C   447   6     48.2404861000   56.3234329000   48.4061470000
H   448   1     47.2439537000   56.2071533000   48.7232018000
C   449   6     48.9656601000   57.4326324000   49.1942520000
H   450   1     48.6665497000   57.2198524000   50.2543640000
H   451   1     50.1158295000   57.5147629000   49.1566048000
C   452   6     48.4810562000   58.8365402000   48.7963104000
H   453   1     48.9692688000   59.0853882000   47.8837585000
H   454   1     47.3587341000   58.7938843000   48.6624947000
C   455   6     48.8583298000   59.8875999000   49.8595581000
H   456   1     49.9621277000   59.8864555000   50.0748138000
H   457   1     48.7886467000   60.9624557000   49.4136276000
N   458   7     48.0093727000   59.8035393000   51.0954971000
H   459   1     48.4952583000   59.2519073000   51.8204269000
C   460   6     47.0305595000   60.6323853000   51.4177322000
N   461   7     46.4809494000   61.3645554000   50.4808273000
H   462   1     46.7789764000   61.2297974000   49.5025597000
H   463   1     45.6128273000   61.9195900000   50.6290131000
N   464   7     46.5768967000   60.5836334000   52.5959740000
H   465   1     47.0977364000   60.0484886000   53.2630348000
H   466   1     45.8298798000   61.2169724000   52.8750420000
C   467   6     48.1665955000   56.5597878000   46.8806763000
O   468   8     49.1165466000   56.3503456000   46.0975571000
N   469   7     46.9738922000   57.0077324000   46.4261322000
H   470   1     46.2418747000   57.2892036000   47.1083488000
C   471   6     46.7788887000   57.3656273000   45.0234756000
H   472   1     47.7503891000   57.5610161000   44.5364342000
C   473   6     45.9779167000   56.2824669000   44.2247620000
H   474   1     44.9266396000   56.4601822000   44.3334808000
H   475   1     46.2672615000   56.4436531000   43.1749573000
C   476   6     46.3146820000   54.8242569000   44.4426308000
O   477   8     47.3736610000   54.4316139000   43.9622421000
N   478   7     45.5511703000   54.0562782000   45.1832924000
H   479   1     45.9643860000   53.1994171000   45.5223618000
H   480   1     44.6833191000   54.4133530000   45.5438461000
H   481   1     38.8957854563   45.0374202643   52.8768437090
H   482   1     44.6383631785   55.6649624679   50.7749735223
H   483   1     47.8010891991   45.9425904489   55.6383100141
H   484   1     49.5201380381   40.1112699603   54.6910857069