[Molden Format]
[Title]
Written by TeraChem
[Atoms] Angs
C   1   6     39.7578278000   45.0951538000   51.6052856000
H   2   1     39.5923538000   44.4114609000   50.7930298000
H   3   1     39.2976265000   46.0765076000   51.3316040000
C   4   6     41.2110062000   45.4455109000   51.7235107000
C   5   6     42.1568146000   44.3558121000   51.6275482000
H   6   1     41.8074455000   43.3467903000   51.6026611000
C   7   6     43.5428581000   44.6747665000   51.5982437000
H   8   1     44.2873993000   43.8698959000   51.5770264000
C   9   6     43.9625854000   46.0370674000   51.7130470000
H   10   1     45.0187721000   46.3232193000   51.6814995000
C   11   6     43.0074005000   47.0583191000   51.7350845000
H   12   1     43.2794533000   48.0958519000   51.8286896000
C   13   6     41.6535225000   46.7575645000   51.7990456000
H   14   1     40.9365158000   47.6138344000   51.8810425000
C   15   6     44.6687775000   54.9341011000   51.3993454000
O   16   8     43.4914169000   54.9151192000   51.6705093000
N   17   7     45.6230736000   54.0374031000   51.8176727000
H   18   1     46.5918770000   54.2636528000   51.6310730000
C   19   6     45.3084641000   52.7900772000   52.5486450000
H   20   1     44.5784531000   52.8326645000   53.2912140000
C   21   6     44.8290100000   51.7367516000   51.5243912000
H   22   1     44.6484184000   50.7655907000   51.9445877000
H   23   1     43.8631516000   52.0644035000   51.1722984000
C   24   6     45.7964516000   51.4936752000   50.3177834000
H   25   1     46.1056175000   52.4878883000   49.8973160000
H   26   1     46.6990318000   50.9622383000   50.7029495000
C   27   6     45.1967087000   50.5723152000   49.3036804000
O   28   8     44.5428047000   49.5107574000   49.5828247000
N   29   7     45.3281364000   50.8950424000   48.0300102000
H   30   1     45.8663139000   51.6986847000   47.8302994000
H   31   1     45.0600052000   50.1278305000   47.4192009000
C   32   6     46.5271530000   52.1589470000   53.3137054000
O   33   8     47.6563187000   52.6753044000   53.2812500000
N   34   7     46.3552437000   51.0183525000   53.9908371000
H   35   1     45.4035797000   50.6058884000   53.9372253000
C   36   6     47.3023300000   50.1605263000   54.6532860000
H   37   1     48.2364845000   50.0827980000   54.1439896000
C   38   6     47.7009125000   50.6779060000   56.1017418000
H   39   1     48.3824577000   49.9102974000   56.4826164000
C   40   6     48.5005608000   52.0271072000   56.0495605000
H   41   1     47.7758408000   52.8451729000   55.9284668000
H   42   1     48.9566422000   52.0793724000   57.0111008000
H   43   1     49.3775406000   51.9736671000   55.3601494000
O   44   8     46.5761871000   50.8063965000   56.9236717000
H   45   1     46.1514206000   49.9190140000   56.7903290000
C   46   6     46.8074608000   48.7695885000   54.7187653000
O   47   8     45.6473885000   48.4848595000   54.6170120000
N   48   7     47.6804886000   47.7579079000   54.8879814000
H   49   1     48.5972176000   47.9775276000   55.2587852000
C   50   6     47.4141006000   46.3490753000   54.9331512000
H   51   1     46.3715363000   46.1183128000   55.3171921000
C   52   6     47.5284042000   45.7995071000   53.4880524000
H   53   1     46.8853912000   46.3525047000   52.7559433000
H   54   1     48.6033974000   45.8159294000   53.1401367000
H   55   1     47.2631874000   44.7369537000   53.5897141000
C   56   6     50.4236450000   40.4811554000   53.9758530000
H   57   1     51.4675674000   40.7766953000   54.1175842000
H   58   1     50.4003067000   39.5749359000   53.3900871000
C   59   6     49.7797203000   41.5546188000   53.0773849000
H   60   1     50.1473389000   41.3326874000   52.1013718000
C   61   6     48.2568398000   41.6291466000   52.8606796000
H   62   1     48.0652237000   42.2098083000   52.0221291000
H   63   1     47.8814011000   40.6808891000   52.6352921000
H   64   1     47.6675377000   41.8718567000   53.7827225000
C   65   6     50.2674294000   43.0031815000   53.3348503000
H   66   1     51.3647804000   43.1434860000   53.3920364000
H   67   1     49.8983383000   43.6449013000   52.5681648000
H   68   1     49.9617691000   43.3763428000   54.2182465000
C   69   6     53.1851921000   42.5933800000   45.9096107000
O   70   8     51.9363556000   42.6479263000   45.8021736000
N   71   7     53.8272781000   43.7062302000   46.3172836000
H   72   1     54.8430290000   43.7999382000   46.2464142000
C   73   6     53.1556473000   44.8330460000   46.9459953000
H   74   1     52.5688133000   44.4121742000   47.7800789000
C   75   6     54.2005882000   45.7664680000   47.5693092000
H   76   1     54.9296951000   46.1306610000   46.8780060000
H   77   1     53.6714897000   46.5663109000   47.9631081000
O   78   8     54.9313393000   45.2614899000   48.7009354000
H   79   1     54.2571602000   45.2286987000   49.4008064000
C   80   6     52.1964798000   45.6838646000   46.1085968000
O   81   8     51.0642395000   45.8497849000   46.5414200000
N   82   7     52.4572678000   45.9470787000   44.8358994000
C   83   6     53.7268143000   45.6650391000   44.1371956000
H   84   1     53.7256241000   44.6259537000   43.6650925000
H   85   1     54.5576553000   45.7340546000   44.7772026000
C   86   6     53.8995171000   46.7005997000   43.0145454000
H   87   1     54.2246094000   46.2447548000   42.0593834000
H   88   1     54.4211197000   47.5649109000   43.4069443000
C   89   6     52.4504128000   47.1285248000   42.7663574000
H   90   1     52.1271744000   46.6747055000   41.8358765000
H   91   1     52.3763657000   48.1885223000   42.7866516000
C   92   6     51.6092224000   46.5624962000   43.9207687000
H   93   1     51.1402206000   47.3838348000   44.3436584000
C   94   6     50.3698692000   45.7129364000   43.4142113000
O   95   8     49.7319183000   46.0525970000   42.4361458000
N   96   7     49.9410591000   44.6785660000   44.1471672000
H   97   1     50.3331757000   44.6150360000   45.1052933000
C   98   6     48.9373741000   43.7609634000   43.7041130000
H   99   1     48.5155907000   44.3024025000   42.8545380000
C   100   6     49.7234039000   42.4655457000   43.1839981000
H   101   1     49.6385231000   41.7041626000   43.9815865000
H   102   1     49.1562347000   42.0206299000   42.3135605000
C   103   6     51.1316719000   42.6597557000   42.6180649000
H   104   1     51.8619843000   43.2085991000   43.3017349000
H   105   1     51.4904327000   41.6497879000   42.5449715000
C   106   6     51.2470169000   43.3395004000   41.3006592000
O   107   8     50.2739792000   43.6034698000   40.5464096000
N   108   7     52.4983253000   43.5170403000   40.8686523000
H   109   1     53.2707787000   43.3232803000   41.4855766000
H   110   1     52.5869980000   44.0053253000   39.9842949000
C   111   6     47.8794098000   43.3795891000   44.7152748000
O   112   8     46.7745361000   42.9259033000   44.3982849000
N   113   7     48.1178093000   43.6969528000   46.0092583000
H   114   1     48.9049492000   44.2052879000   46.3008957000
C   115   6     47.0384369000   43.5651588000   47.0352898000
H   116   1     46.4575996000   42.6338272000   46.8077278000
C   117   6     47.7097359000   43.5097961000   48.4036179000
H   118   1     48.2503548000   44.4268570000   48.5282478000
H   119   1     46.9104691000   43.4273148000   49.1806602000
C   120   6     48.7327805000   42.4312248000   48.5998573000
C   121   6     50.1293602000   42.7643509000   48.4355736000
H   122   1     50.3185272000   43.7482643000   48.1861572000
C   123   6     51.0753632000   41.7426453000   48.5428543000
H   124   1     52.0707703000   42.0218506000   48.2608757000
C   125   6     50.7171173000   40.4262466000   48.8689728000
H   126   1     51.4542313000   39.6557579000   48.9976158000
C   127   6     49.3862000000   40.1624451000   49.1191139000
H   128   1     49.0999603000   39.1886559000   49.3171234000
C   129   6     48.3875351000   41.1548424000   48.9887695000
H   130   1     47.3840294000   40.9216118000   49.0859756000
C   131   6     46.1818008000   44.8235931000   47.0422668000
O   132   8     45.2545166000   45.0613365000   47.8252182000
N   133   7     46.5057716000   45.6858902000   45.9715042000
C   134   6     46.9826508000   46.8718567000   46.0068359000
C   135   6     47.3973541000   47.6029510000   47.2460556000
C   136   6     48.8012505000   47.3671722000   47.7987518000
S   137   16     49.0669670000   48.2284927000   49.3433723000
C   138   6     47.8475342000   47.4518394000   50.5198860000
H   139   1     48.0353622000   46.3269119000   50.6356277000
H   140   1     48.1510162000   47.8393745000   51.4792061000
H   141   1     46.8407631000   47.7637405000   50.1954689000
H   142   1     49.0522461000   46.2603378000   47.8641930000
H   143   1     49.5259438000   47.6523590000   47.0110474000
H   144   1     47.3844566000   48.7113800000   47.0542908000
H   145   1     46.7913589000   47.3849945000   48.1388245000
C   146   6     47.2842445000   47.4488907000   44.6958122000
N   147   7     48.2851562000   48.3131447000   44.5579071000
C   148   6     48.4058075000   48.5570374000   43.2140694000
C   149   6     49.4258575000   49.2281723000   42.5326538000
C   150   6     50.4835434000   50.1327209000   42.8476677000
C   151   6     51.3575058000   50.6883812000   41.7928467000
C   152   6     52.2226791000   51.7116318000   42.1531754000
C   153   6     52.2213745000   52.3544731000   43.4428253000
C   154   6     51.2928810000   51.8874741000   44.4078484000
C   155   6     50.5878983000   50.7403984000   44.1321640000
H   156   1     49.9843674000   50.1931992000   44.9080505000
H   157   1     51.2324562000   52.3586845000   45.3617477000
O   158   8     53.0883255000   53.2324371000   43.7198410000
H   159   1     52.9924736000   52.2181015000   41.5181198000
H   160   1     51.3142357000   50.1491013000   40.8185234000
H   161   1     49.2311897000   49.0286713000   41.4687653000
C   162   6     47.3836708000   47.8998947000   42.5114517000
O   163   8     47.1163025000   47.7675667000   41.2898827000
N   164   7     46.6418076000   47.2500381000   43.4480324000
C   165   6     45.5325470000   46.4340591000   43.0042038000
C   166   6     44.1922150000   47.0387459000   43.3171158000
O   167   8     43.2988739000   47.2975616000   42.5351524000
H   168   1     45.7083549000   46.4255333000   41.9530869000
H   169   1     45.6776466000   45.3985977000   43.4408493000
N   170   7     44.0177879000   47.2143173000   44.6797752000
H   171   1     44.7446976000   46.8645248000   45.3054047000
C   172   6     42.8629112000   47.9810524000   45.3146782000
H   173   1     41.9215240000   47.4798393000   45.1232071000
C   174   6     43.0648384000   47.7798691000   46.9027481000
H   175   1     42.2863197000   48.2805099000   47.4871140000
H   176   1     43.1220398000   46.7371712000   47.1945152000
O   177   8     44.2380066000   48.3639526000   47.2390747000
H   178   1     44.1391068000   48.6301765000   48.2110939000
C   179   6     42.6615067000   49.4622002000   45.0202789000
O   180   8     42.3307381000   50.2662201000   45.8476181000
N   181   7     42.7142563000   49.8037796000   43.7553825000
H   182   1     43.0175209000   49.1304054000   43.0958595000
C   183   6     42.5822906000   51.2018280000   43.2023582000
H   184   1     43.1623077000   51.9008980000   43.8544083000
C   185   6     43.2385597000   51.1089172000   41.8185501000
H   186   1     42.6551514000   50.3838921000   41.2812729000
H   187   1     43.1549263000   52.0843086000   41.2752151000
C   188   6     44.6322556000   50.6295166000   41.7728844000
H   189   1     44.7637367000   49.5367966000   41.9388618000
H   190   1     44.9122162000   50.7287941000   40.7053375000
C   191   6     45.5291061000   51.5648270000   42.6213417000
H   192   1     45.1164055000   52.6042252000   42.5656204000
H   193   1     45.4881706000   51.1167679000   43.5658302000
C   194   6     46.9708786000   51.4592018000   42.1784363000
H   195   1     47.1037102000   50.3509445000   42.1537247000
H   196   1     46.9930344000   51.9093742000   41.1958122000
N   197   7     47.9456329000   51.9681549000   43.1186523000
H   198   1     47.7917557000   52.9353180000   43.4169617000
H   199   1     47.9786339000   51.4938583000   44.0109863000
H   200   1     48.9031639000   51.8389359000   42.8555069000
C   201   6     37.0636063000   46.8460770000   38.6061821000
H   202   1     37.6038246000   46.6802750000   37.6498604000
H   203   1     36.2623749000   47.5881538000   38.4063034000
C   204   6     38.1765442000   47.3330498000   39.5791664000
C   205   6     39.5539818000   47.3396072000   39.1475906000
H   206   1     39.8134995000   46.8743324000   38.2013969000
C   207   6     40.6026077000   47.8538132000   39.9789772000
H   208   1     41.6119308000   47.8948288000   39.6658783000
C   209   6     40.2870522000   48.4081650000   41.2203789000
H   210   1     41.0790825000   48.8997192000   41.8872757000
C   211   6     38.9476166000   48.4967117000   41.6495552000
H   212   1     38.7719460000   48.9574966000   42.6343918000
C   213   6     37.9198074000   47.9680290000   40.8189201000
H   214   1     36.8910980000   48.0071602000   41.1127472000
C   215   6     42.7817917000   44.8348808000   36.5911217000
H   216   1     43.5224991000   45.1235657000   35.8450089000
H   217   1     41.9515800000   45.5926704000   36.5052948000
C   218   6     43.3001404000   44.8989410000   38.0119057000
C   219   6     42.6636887000   45.2238312000   39.1671715000
H   220   1     41.6449280000   45.5622482000   39.1038971000
N   221   7     43.5406952000   45.1225357000   40.2086792000
H   222   1     43.2047310000   45.1650963000   41.1578674000
C   223   6     44.7315140000   44.5460358000   39.7862854000
C   224   6     45.7976570000   43.9038277000   40.4192047000
H   225   1     45.7552338000   43.9106407000   41.5046234000
C   226   6     46.8476486000   43.2451248000   39.7243881000
H   227   1     47.6284485000   42.7114182000   40.2107964000
C   228   6     46.7804146000   43.2389755000   38.3779564000
H   229   1     47.6570816000   42.7423782000   37.8723488000
C   230   6     45.7355843000   43.8779984000   37.6908836000
H   231   1     45.7517204000   43.8606415000   36.5799789000
C   232   6     44.6379471000   44.5051384000   38.3833008000
C   233   6     48.9406052000   43.7723999000   35.5610199000
H   234   1     48.0378723000   44.3050537000   35.7382088000
H   235   1     48.9195404000   42.8295898000   36.1772308000
C   236   6     50.1781311000   44.5849075000   35.8620148000
H   237   1     51.0596237000   44.0076637000   35.5623207000
H   238   1     50.2690201000   45.4662857000   35.2253151000
C   239   6     50.1977081000   44.9386520000   37.3334198000
H   240   1     49.8723145000   44.0404739000   37.8825455000
H   241   1     51.2673645000   45.2109222000   37.5933838000
N   242   7     49.4051666000   46.1554565000   37.6713448000
H   243   1     49.2821274000   46.8234558000   36.8976212000
C   244   6     48.8463173000   46.5508194000   38.7805672000
N   245   7     48.9806023000   45.9635124000   39.8929100000
H   246   1     49.1524544000   44.9712334000   39.9664650000
H   247   1     48.8905945000   46.4465561000   40.7928658000
N   248   7     48.2032700000   47.6966438000   38.7594376000
H   249   1     48.0113945000   48.1750526000   37.8699455000
H   250   1     47.5939560000   48.0849533000   39.5612717000
C   251   6     43.3571968000   41.8631020000   41.1193123000
H   252   1     44.4414940000   41.8419838000   41.2685699000
H   253   1     43.2152176000   42.5744591000   40.3582916000
C   254   6     42.5510826000   42.3043976000   42.4003525000
H   255   1     41.4815826000   42.4588623000   42.2543526000
H   256   1     42.4496002000   41.5147934000   43.0801010000
C   257   6     43.0166054000   43.4531593000   43.1441841000
O   258   8     42.5814095000   44.5939865000   42.9752312000
N   259   7     43.9554634000   43.2935371000   44.0573463000
H   260   1     44.5106506000   42.3910370000   44.1084747000
H   261   1     44.2986984000   44.0765343000   44.6176872000
C   262   6     59.4500160000   52.5879440000   45.3377075000
O   263   8     58.9665146000   53.3293610000   46.2276878000
N   264   7     60.0910721000   53.0918808000   44.3458748000
H   265   1     60.3589935000   52.5021667000   43.5828743000
C   266   6     60.1162300000   54.5280647000   44.0216980000
H   267   1     60.5453262000   55.0895462000   44.8779640000
C   268   6     61.1304932000   54.8118935000   42.9053726000
H   269   1     62.0012589000   54.2207298000   43.1380920000
H   270   1     60.7017708000   54.4067459000   41.9991264000
C   271   6     61.5653610000   56.2674751000   42.6046829000
H   272   1     62.2249031000   56.1881180000   41.7361221000
H   273   1     60.6711807000   56.8085823000   42.2169724000
C   274   6     62.1563568000   57.0666924000   43.7326965000
O   275   8     63.3435402000   57.4016762000   43.6152458000
O   276   8     61.5843544000   57.1826248000   44.8871803000
C   277   6     58.6947327000   55.0580940000   43.6197357000
O   278   8     57.9162064000   54.2766228000   42.9862175000
N   279   7     58.4939880000   56.3344917000   43.8426132000
H   280   1     59.2587242000   56.8449707000   44.3588257000
C   281   6     57.3186302000   57.0643692000   43.3456459000
H   282   1     56.4850655000   56.9347687000   44.0090866000
C   283   6     57.6013870000   58.5645714000   43.3932076000
H   284   1     58.1376305000   58.8540497000   44.2774239000
H   285   1     58.1457214000   58.8931694000   42.5465698000
H   286   1     56.6201401000   59.1079903000   43.4183807000
C   287   6     56.9075851000   56.6926727000   41.8931770000
O   288   8     57.8342476000   56.6461906000   40.9997330000
N   289   7     55.6378403000   56.4812660000   41.5433884000
H   290   1     54.9093437000   56.7043533000   42.2467766000
C   291   6     55.1863899000   56.1793289000   40.2338181000
H   292   1     55.9910355000   56.2343903000   39.5614662000
C   293   6     54.8312683000   54.6860847000   40.3616371000
H   294   1     55.5433083000   54.1595116000   41.0071602000
H   295   1     53.8793030000   54.6233139000   40.8041992000
S   296   16     54.6437302000   53.9301300000   38.6949844000
H   297   1     53.6766396000   53.0799065000   39.1688843000
C   298   6     53.4014816000   52.0102234000   35.8301239000
H   299   1     53.8656158000   51.0689888000   35.9608383000
H   300   1     53.9660797000   52.7871513000   36.3987007000
C   301   6     51.9911385000   51.9736443000   36.3627853000
H   302   1     51.5064163000   52.9158440000   36.4769096000
H   303   1     51.3828430000   51.3806190000   35.7141151000
S   304   16     52.0991898000   51.3422585000   38.0886993000
C   305   6     50.3632812000   50.7646904000   37.9451790000
H   306   1     50.2401352000   50.0472679000   37.1807442000
H   307   1     50.0384369000   50.3814735000   38.9491959000
H   308   1     49.7042694000   51.5654984000   37.7640419000
C   309   6     57.2805405000   50.2598000000   38.0851021000
H   310   1     57.6564980000   49.2723694000   37.7331314000
H   311   1     57.4750519000   50.2159195000   39.1464500000
C   312   6     55.7237854000   50.0811920000   37.8594589000
H   313   1     55.2711792000   51.1287537000   38.0383644000
H   314   1     55.4993820000   49.9701347000   36.8446655000
S   315   16     54.8505554000   48.7763748000   38.9258041000
C   316   6     54.8897095000   49.5975914000   40.4964676000
H   317   1     55.3077087000   50.6433334000   40.5615616000
H   318   1     53.8682556000   49.6856918000   40.7151260000
H   319   1     55.2761993000   48.9075317000   41.1888466000
C   320   6     41.3097801000   48.5213242000   35.0181770000
H   321   1     41.0267715000   49.4506035000   34.5245018000
H   322   1     40.5513992000   48.4361076000   35.7728996000
C   323   6     42.6497879000   48.8342667000   35.6659851000
C   324   6     42.8084564000   48.3526421000   36.9961433000
H   325   1     42.1004906000   47.6510963000   37.3589439000
C   326   6     43.9377556000   48.7665558000   37.8078690000
H   327   1     44.0792503000   48.4566917000   38.8250198000
C   328   6     44.9227142000   49.7079163000   37.2274513000
O   329   8     45.9670029000   50.1387787000   37.9671936000
H   330   1     46.5660286000   50.7289276000   37.4639473000
C   331   6     44.6930008000   50.0659943000   35.8955727000
H   332   1     45.3627701000   50.7884178000   35.5044670000
C   333   6     43.6238136000   49.6264648000   35.0256310000
H   334   1     43.5673904000   49.9615555000   34.0249443000
C   335   6     49.9902649000   58.5683861000   41.8630219000
O   336   8     49.1170273000   58.7145805000   42.6586113000
N   337   7     50.9307251000   57.6139832000   42.0103149000
H   338   1     51.6401329000   57.3952827000   41.3147888000
C   339   6     50.8757858000   56.7841377000   43.2418976000
H   340   1     50.0350609000   57.0494537000   43.9934235000
C   341   6     50.6165314000   55.4391479000   42.6770859000
H   342   1     50.5303802000   54.7129593000   43.4571686000
C   343   6     49.3734589000   55.1791077000   41.8019676000
H   344   1     49.4838524000   55.6570740000   40.8193207000
H   345   1     49.2458153000   54.1267586000   41.6604576000
H   346   1     48.5394478000   55.6578903000   42.2803688000
O   347   8     51.6910248000   55.0708847000   41.8599930000
H   348   1     52.2182159000   54.5158005000   42.4691315000
C   349   6     52.2117195000   56.6878510000   44.0094032000
O   350   8     53.2725143000   56.9082069000   43.5078354000
N   351   7     52.0396271000   56.2754631000   45.2883987000
H   352   1     51.0626602000   56.0514259000   45.5765572000
C   353   6     53.1365585000   56.1085701000   46.3248024000
H   354   1     54.0991592000   55.8521881000   45.8325577000
C   355   6     53.3245888000   57.3521729000   47.2308006000
H   356   1     52.4464722000   57.5972519000   47.8265686000
H   357   1     54.0772476000   57.1017113000   47.9354248000
C   358   6     53.6159363000   58.6073341000   46.3896561000
H   359   1     54.5355301000   58.3673172000   45.8220596000
H   360   1     52.7269745000   58.7070122000   45.7515335000
C   361   6     53.7463188000   59.8772011000   47.2126045000
H   362   1     52.7355003000   60.2195396000   47.5501556000
H   363   1     54.4423981000   59.7796631000   48.0571976000
C   364   6     54.1815605000   61.0189476000   46.3249626000
H   365   1     55.0299911000   60.7991714000   45.7379875000
H   366   1     53.4570656000   61.3304558000   45.5691872000
N   367   7     54.4152222000   62.2080460000   47.0990601000
H   368   1     54.3850670000   63.0806732000   46.5013351000
H   369   1     53.8787804000   62.2781754000   47.9444160000
H   370   1     55.3777313000   62.1444283000   47.4403000000
C   371   6     52.7615280000   54.8997955000   47.2016373000
O   372   8     51.5821533000   54.8028793000   47.5329666000
N   373   7     53.7856903000   54.0051193000   47.4695778000
H   374   1     54.6854057000   54.2428627000   47.0215569000
C   375   6     53.7925682000   52.6771011000   48.0902443000
H   376   1     53.0155602000   52.6643562000   48.7927818000
C   377   6     53.5509834000   51.6226654000   46.9864082000
H   378   1     52.4790916000   51.5410538000   46.7205582000
H   379   1     54.2716904000   51.8511200000   46.1699867000
C   380   6     53.9077606000   50.1880074000   47.4142914000
H   381   1     54.9232712000   50.1586227000   47.8665009000
C   382   6     52.8613968000   49.6288071000   48.4265709000
H   383   1     51.9385567000   49.2779770000   47.9462128000
H   384   1     53.3488007000   48.8700523000   48.9864807000
H   385   1     52.4810944000   50.3571320000   49.0950699000
C   386   6     53.9448700000   49.2380524000   46.2477112000
H   387   1     54.3048477000   48.2115555000   46.5367470000
H   388   1     52.9078293000   49.1833420000   45.8585281000
H   389   1     54.4817352000   49.6098518000   45.3715935000
C   390   6     52.8000565000   46.5201035000   55.4860649000
O   391   8     53.9728928000   46.7376747000   55.1098061000
N   392   7     51.8136559000   47.2563133000   54.9753609000
H   393   1     50.8948479000   47.2252197000   55.4279938000
C   394   6     52.0471268000   48.1799316000   53.8838959000
H   395   1     53.0778542000   48.4440041000   53.8219490000
C   396   6     51.5593185000   47.5425949000   52.6225281000
H   397   1     50.7876930000   46.8125229000   52.7604256000
H   398   1     51.0784721000   48.3903847000   52.1149788000
C   399   6     52.7150269000   46.8511505000   51.8577347000
H   400   1     53.4432526000   47.5461540000   51.4475822000
H   401   1     53.3844566000   46.3573914000   52.5492249000
C   402   6     52.2934189000   45.8059692000   50.8278084000
O   403   8     52.9584351000   44.7725716000   50.5855484000
N   404   7     51.2116585000   45.8636818000   50.0823669000
H   405   1     50.5566750000   46.7008781000   50.0721664000
H   406   1     51.1014099000   45.2041626000   49.3615799000
C   407   6     51.3697395000   49.4840927000   54.1447029000
O   408   8     50.3487740000   49.5610466000   54.8458939000
N   409   7     51.7704430000   50.5269852000   53.3610306000
H   410   1     52.4741554000   50.2045898000   52.6350784000
C   411   6     51.1754227000   51.8980484000   53.1968918000
H   412   1     50.1586990000   51.8681030000   53.5730743000
C   413   6     52.0037384000   52.9054604000   53.8992157000
H   414   1     51.9201317000   52.6641655000   55.0011292000
H   415   1     52.9862366000   52.7283859000   53.5424004000
C   416   6     51.6720352000   54.3741989000   53.7690048000
C   417   6     50.4925919000   54.8596420000   54.2771378000
H   418   1     49.8488312000   54.2787704000   54.9153748000
C   419   6     50.0012779000   56.1049232000   53.8557396000
H   420   1     48.9459534000   56.3858032000   54.0639648000
C   421   6     50.7633934000   56.9296837000   53.0558052000
O   422   8     50.2088585000   58.0681190000   52.6707993000
H   423   1     50.8102379000   58.6126556000   52.1244049000
C   424   6     52.0767441000   56.5135994000   52.7234039000
H   425   1     52.6715088000   57.1368942000   52.0851479000
C   426   6     52.5246010000   55.1755524000   52.9638367000
H   427   1     53.4223175000   54.8034515000   52.6342087000
C   428   6     51.1673012000   52.2262230000   51.6642303000
O   429   8     52.1769409000   52.0033569000   51.0196762000
N   430   7     50.0138779000   52.6506958000   51.1538887000
H   431   1     49.2488937000   52.8154602000   51.7774544000
C   432   6     49.8506203000   53.0997772000   49.8331680000
H   433   1     50.7156830000   53.5163574000   49.3830299000
C   434   6     49.4215088000   51.8915405000   48.9056053000
H   435   1     50.1365852000   51.0786476000   49.2031555000
H   436   1     48.4069061000   51.6039276000   49.2697754000
C   437   6     49.4789696000   52.0782928000   47.3464355000
H   438   1     49.9207077000   52.9894333000   47.1966858000
H   439   1     50.1526337000   51.2634277000   47.0114326000
C   440   6     48.0838242000   52.0938568000   46.7712364000
O   441   8     47.2383156000   52.7652740000   47.3359451000
O   442   8     47.8622437000   51.3857651000   45.7203064000
C   443   6     48.9527321000   54.3692055000   49.7076454000
O   444   8     48.0105171000   54.6569023000   50.4437408000
N   445   7     49.1441269000   55.1794395000   48.7025604000
H   446   1     49.8734665000   54.9828758000   48.0235825000
C   447   6     48.3914413000   56.4225388000   48.3152809000
H   448   1     47.4847717000   56.2837372000   48.7483177000
C   449   6     49.1595764000   57.5975761000   49.0121307000
H   450   1     49.1359711000   57.3691902000   50.1164627000
H   451   1     50.2219200000   57.5646935000   48.7337952000
C   452   6     48.6157799000   58.9686508000   48.5842438000
H   453   1     48.9754105000   59.1010666000   47.5687103000
H   454   1     47.5206146000   58.9301834000   48.5858765000
C   455   6     49.2756119000   60.0158653000   49.6049843000
H   456   1     50.1299057000   59.5471916000   50.0868759000
H   457   1     49.5660210000   60.9146881000   49.0515366000
N   458   7     48.3773270000   60.3029022000   50.7350922000
H   459   1     48.6731873000   59.9756660000   51.6664124000
C   460   6     47.2294693000   60.9614143000   50.8229675000
N   461   7     46.7974701000   61.6739616000   49.8238297000
H   462   1     47.4400558000   61.8159409000   49.0356064000
H   463   1     46.0345154000   62.3125648000   49.9519653000
N   464   7     46.5158920000   60.9581566000   51.8518829000
H   465   1     46.8759613000   60.4296722000   52.6830330000
H   466   1     45.8419952000   61.6920242000   51.9650688000
C   467   6     48.2478256000   56.5066338000   46.8240128000
O   468   8     49.1720581000   56.1381111000   46.0995255000
N   469   7     47.1992531000   57.1255875000   46.2760849000
H   470   1     46.4362335000   57.3296051000   46.8666496000
C   471   6     46.9418907000   57.3213387000   44.8558617000
H   472   1     47.8981972000   57.4072571000   44.3091621000
C   473   6     46.1541901000   56.2046127000   44.2864189000
H   474   1     45.1223450000   56.3117218000   44.4690781000
H   475   1     46.1407394000   56.2294693000   43.2413864000
C   476   6     46.6167297000   54.8255386000   44.7133331000
O   477   8     47.5796509000   54.3705177000   44.1899300000
N   478   7     45.7437172000   54.1367340000   45.4438171000
H   479   1     46.0202484000   53.3649635000   46.0194969000
H   480   1     45.0459595000   54.6585236000   45.8433533000
H   481   1     39.2504370949   44.8456474993   52.5371661065
H   482   1     45.0361807792   55.8251726668   50.8903205546
H   483   1     48.0918790982   45.8061375503   55.5918885584
H   484   1     49.8780872186   40.2536872803   54.8916722844