[Molden Format]
[Title]
Written by TeraChem
[Atoms] Angs
C   1   6     39.5596542000   46.0977211000   51.5636215000
H   2   1     39.5350113000   45.3581467000   50.7879868000
H   3   1     39.0900841000   47.0520706000   51.2290115000
C   4   6     41.0530281000   46.3322029000   51.6512680000
C   5   6     41.8731384000   45.2560501000   51.3395729000
H   6   1     41.4262199000   44.2595329000   50.9953308000
C   7   6     43.2629204000   45.5887070000   51.0737076000
H   8   1     43.9104004000   44.7558174000   50.6783485000
C   9   6     43.7546921000   46.8469620000   51.4363480000
H   10   1     44.7896805000   47.0565567000   51.2068748000
C   11   6     42.9052315000   47.8479996000   51.9288597000
H   12   1     43.2757225000   48.8928185000   52.1880379000
C   13   6     41.5138283000   47.5683403000   52.0420837000
H   14   1     40.8088150000   48.3184395000   52.3885307000
C   15   6     43.9600677000   55.3317947000   51.0023575000
O   16   8     42.7520447000   55.1057968000   51.2620773000
N   17   7     44.8861656000   54.5395355000   51.5545807000
H   18   1     45.8586502000   54.7218170000   51.3286171000
C   19   6     44.6282959000   53.2850494000   52.1837387000
H   20   1     43.8565254000   53.4636269000   52.9267578000
C   21   6     44.0144691000   52.1598854000   51.2617302000
H   22   1     43.9147720000   51.2619743000   51.8034782000
H   23   1     42.9275742000   52.3842430000   50.9140472000
C   24   6     44.9866791000   52.0893555000   50.0518227000
H   25   1     44.8970184000   53.0089798000   49.4557610000
H   26   1     45.9974861000   52.0323257000   50.4198265000
C   27   6     44.6778259000   50.8218994000   49.2261505000
O   28   8     44.4873734000   49.7322426000   49.6952133000
N   29   7     44.7907028000   50.8219986000   47.9308243000
H   30   1     45.2401428000   51.6670380000   47.4694786000
H   31   1     44.7480545000   49.9476814000   47.4038887000
C   32   6     45.8999329000   52.7427826000   52.9479561000
O   33   8     46.9536934000   53.2988167000   52.6862411000
N   34   7     45.7300339000   51.7646446000   53.8005257000
H   35   1     44.7353287000   51.3800049000   53.8644104000
C   36   6     46.7090912000   50.9926147000   54.5412102000
H   37   1     47.6397858000   50.9469528000   53.9689713000
C   38   6     47.0670395000   51.4733849000   55.9248428000
H   39   1     47.8883553000   50.7704315000   56.1970215000
C   40   6     47.5818672000   52.8514938000   55.9875259000
H   41   1     48.4500351000   52.8783875000   55.3335762000
H   42   1     46.8233070000   53.5202789000   55.6544914000
H   43   1     47.7793503000   53.0076294000   57.1162415000
O   44   8     46.1148911000   51.3516045000   56.9455757000
H   45   1     46.0349083000   50.4256401000   57.3129692000
C   46   6     46.2650146000   49.5673561000   54.7770309000
O   47   8     45.0572510000   49.3108444000   54.8563576000
N   48   7     47.2368164000   48.6784706000   54.9896164000
H   49   1     48.1899033000   48.9754448000   55.1538086000
C   50   6     46.9177818000   47.2949944000   55.2497139000
H   51   1     45.9925652000   47.1164703000   55.7189484000
C   52   6     46.7846985000   46.5131950000   53.9030609000
H   53   1     47.7626076000   46.2823639000   53.5564194000
H   54   1     46.2813416000   45.5182877000   54.1083565000
H   55   1     46.0730438000   46.9222450000   53.1929970000
C   56   6     49.7463989000   41.3662567000   53.9925804000
H   57   1     50.8220901000   41.4071693000   54.0611877000
H   58   1     49.5166016000   40.3460732000   53.5661888000
C   59   6     49.1809883000   42.4634781000   53.0363159000
H   60   1     49.5998039000   42.0591202000   52.0560074000
C   61   6     47.7280998000   42.4345016000   52.8980713000
H   62   1     47.3094330000   42.6905022000   53.8654175000
H   63   1     47.3287659000   43.0850677000   52.1405563000
H   64   1     47.3910217000   41.3857880000   52.6710663000
C   65   6     49.5965881000   43.8669014000   53.2479019000
H   66   1     49.2671356000   44.3034592000   54.2274246000
H   67   1     50.6665764000   43.8457260000   53.1767883000
H   68   1     49.3019714000   44.4157715000   52.3702393000
C   69   6     53.3890991000   42.2090988000   46.4794312000
O   70   8     52.1825714000   42.3386726000   46.4365959000
N   71   7     54.2048569000   43.0961380000   46.9350777000
H   72   1     55.1732330000   42.7476463000   47.0126686000
C   73   6     53.8397598000   44.4212875000   47.5414848000
H   74   1     53.3155212000   44.1688156000   48.4229813000
C   75   6     55.1083527000   45.2132568000   47.8418121000
H   76   1     55.8321724000   44.5822105000   48.3237305000
H   77   1     55.6005821000   45.5147591000   46.8866730000
O   78   8     54.8605537000   46.3332138000   48.6404076000
H   79   1     54.4413605000   46.0223808000   49.4563904000
C   80   6     52.7858963000   45.2677765000   46.7386246000
O   81   8     51.7669640000   45.5203590000   47.3268585000
N   82   7     53.0322075000   45.6755028000   45.4333649000
C   83   6     54.2386208000   45.3913689000   44.6902390000
H   84   1     54.4078789000   44.3504143000   44.7026024000
H   85   1     55.0795898000   45.9707451000   45.1089020000
C   86   6     53.9984360000   45.9308472000   43.2597504000
H   87   1     53.6392136000   45.2361450000   42.6451569000
H   88   1     54.9959335000   46.2648544000   42.9005661000
C   89   6     52.9662666000   46.9928665000   43.4619560000
H   90   1     52.5244446000   47.0865440000   42.4660721000
H   91   1     53.5464287000   47.8218384000   43.7859726000
C   92   6     52.1278763000   46.3869019000   44.5755539000
H   93   1     51.7229233000   47.2429962000   45.1047745000
C   94   6     50.8715744000   45.6137810000   44.0588913000
O   95   8     50.2007599000   46.2035332000   43.2080078000
N   96   7     50.6500092000   44.3536568000   44.4421349000
H   97   1     51.3328171000   43.9266777000   45.0871086000
C   98   6     49.4816132000   43.5983467000   44.0072479000
H   99   1     49.2125549000   44.0537415000   43.0109062000
C   100   6     49.9530830000   42.1700287000   43.7754059000
H   101   1     50.0126953000   41.6692581000   44.7349396000
H   102   1     49.2354431000   41.5362968000   43.2482834000
C   103   6     51.3052521000   41.8951378000   43.0552292000
H   104   1     52.1738815000   42.2578239000   43.6009827000
H   105   1     51.4017868000   40.8522758000   42.9882774000
C   106   6     51.4591446000   42.4406624000   41.6558037000
O   107   8     50.5327377000   42.8636742000   40.9646606000
N   108   7     52.7129745000   42.3423080000   41.1831207000
H   109   1     53.4445114000   42.0998039000   41.8460083000
H   110   1     52.9713478000   42.7608719000   40.2843437000
C   111   6     48.3316269000   43.5820847000   45.0166016000
O   112   8     47.2908020000   43.1713486000   44.5675049000
N   113   7     48.5024185000   43.9068756000   46.2968407000
H   114   1     49.4771118000   44.0580597000   46.6161804000
C   115   6     47.4123077000   43.9264717000   47.2460213000
H   116   1     46.7135696000   43.1599960000   46.9352150000
C   117   6     47.9370880000   43.4880028000   48.6451759000
H   118   1     48.5675049000   44.2790222000   49.1031837000
H   119   1     47.0923615000   43.4187469000   49.3073235000
C   120   6     48.7078438000   42.1502266000   48.8462372000
C   121   6     50.1403580000   42.1506653000   48.7100563000
H   122   1     50.6708488000   43.0283661000   48.3764725000
C   123   6     50.8790970000   41.0340462000   49.0796852000
H   124   1     51.9551125000   40.9552040000   49.0901260000
C   125   6     50.2065697000   39.8174362000   49.3338623000
H   126   1     50.7962646000   38.9034157000   49.5903091000
C   127   6     48.7981033000   39.7821236000   49.2657814000
H   128   1     48.2683372000   38.8520241000   49.4551773000
C   129   6     48.0121193000   40.9295464000   49.0760422000
H   130   1     46.9912300000   40.9457207000   49.2187691000
C   131   6     46.5928955000   45.2799683000   47.4314079000
O   132   8     45.7167091000   45.3743210000   48.3083153000
N   133   7     46.7305031000   46.1257324000   46.3639679000
C   134   6     47.5996017000   47.1034851000   46.2092400000
C   135   6     48.5635796000   47.4120941000   47.3203468000
C   136   6     47.8736038000   48.2170792000   48.3981018000
S   137   16     49.0399742000   48.4103165000   49.8217735000
C   138   6     47.7580566000   48.4765625000   51.1395454000
H   139   1     46.9734497000   49.1951828000   50.8366776000
H   140   1     47.4554482000   47.4950409000   51.5145721000
H   141   1     48.2972031000   48.9290581000   52.0268288000
H   142   1     47.4273834000   49.1667404000   48.0974884000
H   143   1     47.0000801000   47.5906792000   48.7789497000
H   144   1     48.9957581000   46.4923172000   47.7182770000
H   145   1     49.4897499000   47.8783760000   46.8791962000
C   146   6     47.7765999000   47.7151718000   44.8317719000
N   147   7     48.7349663000   48.5325432000   44.5818100000
C   148   6     48.5699005000   48.7798462000   43.1489601000
C   149   6     49.5135040000   49.4394226000   42.3495102000
C   150   6     50.6364632000   50.2987099000   42.6777344000
C   151   6     51.4651146000   50.7907639000   41.6013298000
C   152   6     52.3825874000   51.8280792000   41.8369980000
C   153   6     52.6950150000   52.3595619000   43.1897736000
C   154   6     51.7783394000   51.8685989000   44.2386551000
C   155   6     50.7797203000   50.9072838000   43.9982758000
H   156   1     50.1837959000   50.5252533000   44.7600517000
H   157   1     51.9359932000   52.2226334000   45.2470703000
O   158   8     53.5911980000   53.2331924000   43.3677254000
H   159   1     53.0469437000   52.1388397000   41.0073051000
H   160   1     51.3205795000   50.3903198000   40.5556793000
H   161   1     49.4476318000   49.2709808000   41.2562256000
C   162   6     47.6576767000   47.8486633000   42.5854340000
O   163   8     47.1551666000   47.6760483000   41.4870377000
N   164   7     47.1338654000   47.1394691000   43.6703453000
C   165   6     46.0544815000   46.1577682000   43.5755386000
C   166   6     44.6966743000   46.6982689000   43.6575241000
O   167   8     43.9560089000   46.8628769000   42.6801453000
H   168   1     46.3435555000   45.6220398000   42.6695251000
H   169   1     46.2344894000   45.3502808000   44.3782272000
N   170   7     44.3662453000   47.0743561000   44.8920631000
H   171   1     45.0436096000   47.1142387000   45.6410294000
C   172   6     43.0170975000   47.3269958000   45.4192505000
H   173   1     42.3191261000   46.5285263000   45.0798874000
C   174   6     43.1668816000   47.2002487000   46.9214478000
H   175   1     42.2464218000   47.4630737000   47.3942184000
H   176   1     43.3660698000   46.1960793000   47.2659988000
O   177   8     44.1712227000   48.0921021000   47.3682976000
H   178   1     43.9886856000   48.3058968000   48.2928772000
C   179   6     42.4967918000   48.7304535000   45.0057907000
O   180   8     41.9358826000   49.4120750000   45.8147125000
N   181   7     42.4853363000   49.0460663000   43.7158279000
H   182   1     42.7688217000   48.3259773000   43.0268059000
C   183   6     42.3797989000   50.4082794000   43.1877174000
H   184   1     42.9264450000   51.1377945000   43.7071838000
C   185   6     42.9687653000   50.5463982000   41.7390976000
H   186   1     42.4824829000   49.8121986000   41.1170883000
H   187   1     42.6873016000   51.5183487000   41.2285767000
C   188   6     44.5202217000   50.4360199000   41.6394768000
H   189   1     44.7816696000   49.3877106000   41.9106903000
H   190   1     44.7102394000   50.5003967000   40.6147804000
C   191   6     45.2720299000   51.3649979000   42.5654640000
H   192   1     45.0815544000   52.3824730000   42.3569641000
H   193   1     45.1279068000   51.0709343000   43.6497841000
C   194   6     46.7207794000   51.2989769000   42.2416763000
H   195   1     46.8422012000   50.2368736000   41.9255867000
H   196   1     47.0290833000   51.9891357000   41.4390755000
N   197   7     47.5997620000   51.6234627000   43.3757439000
H   198   1     47.5847816000   52.5697289000   43.7133942000
H   199   1     47.3455734000   51.1377029000   44.2509384000
H   200   1     48.5115585000   51.3806305000   43.0326920000
C   201   6     37.3554649000   46.0250282000   38.4821930000
H   202   1     38.0270920000   45.7609177000   37.7111473000
H   203   1     36.8215866000   46.9407234000   38.2367287000
C   204   6     38.2472687000   46.3457031000   39.6263466000
C   205   6     39.3159142000   45.5316162000   40.0203667000
H   206   1     39.5590744000   44.6985397000   39.3959732000
C   207   6     40.1419640000   45.8434753000   41.1409225000
H   208   1     40.9356346000   45.1053085000   41.3817673000
C   209   6     39.9044724000   47.0366859000   41.8435059000
H   210   1     40.5765381000   47.2786484000   42.6288261000
C   211   6     38.7634125000   47.7903786000   41.5858841000
H   212   1     38.6925697000   48.7113380000   42.1670876000
C   213   6     37.9147034000   47.4278030000   40.4897995000
H   214   1     37.1013374000   48.0472908000   40.2449074000
C   215   6     43.0914650000   44.5181465000   36.7835770000
H   216   1     43.9320564000   44.7512779000   36.1040916000
H   217   1     42.3399658000   45.3573303000   36.7224426000
C   218   6     43.7264633000   44.6241074000   38.1393471000
C   219   6     43.1597595000   45.2161713000   39.2409439000
H   220   1     42.2588539000   45.8475838000   39.2700272000
N   221   7     43.9528656000   45.0648117000   40.3466339000
H   222   1     43.7903557000   45.5869751000   41.1895332000
C   223   6     45.1051407000   44.3077164000   40.0417557000
C   224   6     46.2244644000   43.7711487000   40.7429810000
H   225   1     46.3867607000   43.8798943000   41.8132477000
C   226   6     47.1332169000   42.9338226000   40.0540771000
H   227   1     47.9501305000   42.4001007000   40.5750885000
C   228   6     47.0815811000   42.8084793000   38.6887207000
H   229   1     47.6994514000   42.0398560000   38.2464447000
C   230   6     46.0124664000   43.3639145000   37.9311600000
H   231   1     45.9149628000   43.1764259000   36.8656769000
C   232   6     44.9426498000   44.0834503000   38.6178398000
C   233   6     49.0407486000   43.2609978000   35.8557968000
H   234   1     48.2331429000   43.9435654000   36.0819283000
H   235   1     48.9135513000   42.5333595000   36.6091766000
C   236   6     50.3565445000   44.0656815000   36.1950073000
H   237   1     51.2151756000   43.3929825000   36.2691345000
H   238   1     50.4417992000   44.8446617000   35.4418259000
C   239   6     50.2329712000   44.7297287000   37.5734406000
H   240   1     49.8346901000   43.9756050000   38.2369385000
H   241   1     51.2247696000   45.1052055000   37.8645134000
N   242   7     49.3794937000   45.9146423000   37.6275406000
H   243   1     48.9454460000   46.2248421000   36.7767792000
C   244   6     48.8236694000   46.4564362000   38.6534271000
N   245   7     48.8848572000   45.8998413000   39.8918571000
H   246   1     49.4175339000   45.0452385000   40.1277390000
H   247   1     48.2353973000   46.3358650000   40.5334435000
N   248   7     48.0980606000   47.5019112000   38.5413132000
H   249   1     48.0676804000   47.9777184000   37.6546249000
H   250   1     47.4311256000   47.7243881000   39.2739944000
C   251   6     43.5808411000   41.4784203000   41.2908325000
H   252   1     44.5981598000   41.3583031000   41.6939850000
H   253   1     43.6095352000   42.2457314000   40.4440269000
C   254   6     42.7031326000   42.0939217000   42.3102798000
H   255   1     41.8196259000   42.5042343000   41.9553452000
H   256   1     42.4906464000   41.2602921000   42.9895821000
C   257   6     43.3011971000   43.1593552000   43.1569481000
O   258   8     42.8694458000   44.3277702000   43.1356087000
N   259   7     44.2652054000   42.8508453000   44.0018806000
H   260   1     44.6465340000   41.9321289000   44.0502853000
H   261   1     44.6888733000   43.5788956000   44.5452461000
C   262   6     59.6186066000   52.1433411000   45.0794220000
O   263   8     59.1231575000   52.5717697000   46.1097374000
N   264   7     60.1796265000   52.9362450000   44.1300011000
H   265   1     60.4450378000   52.4220276000   43.2990608000
C   266   6     59.8698273000   54.3226433000   44.1094246000
H   267   1     59.9866676000   54.7988358000   45.0167313000
C   268   6     60.7620811000   55.0475540000   43.0447311000
H   269   1     60.8887177000   54.5189133000   42.1095123000
H   270   1     60.2532196000   55.9582939000   42.6530800000
C   271   6     62.1318474000   55.4624901000   43.5055161000
H   272   1     62.7995453000   54.6407127000   43.8183060000
H   273   1     62.5512314000   55.9297104000   42.6780624000
C   274   6     61.9764786000   56.4622040000   44.6704712000
O   275   8     62.9954720000   56.7324257000   45.3565445000
O   276   8     60.8506737000   57.0740662000   44.8213921000
C   277   6     58.3977127000   54.6371536000   43.7488365000
O   278   8     57.7100067000   53.7678185000   43.2250023000
N   279   7     58.0015182000   55.8984299000   43.9290085000
H   280   1     58.5382385000   56.6131630000   44.4394722000
C   281   6     56.6963577000   56.3306389000   43.3740578000
H   282   1     55.8904991000   55.6988106000   43.8121071000
C   283   6     56.4977875000   57.7032394000   43.9786987000
H   284   1     57.3780022000   58.3945541000   43.7800293000
H   285   1     55.5375328000   58.0429420000   43.6166534000
H   286   1     56.4117241000   57.6035690000   45.0309029000
C   287   6     56.5834389000   56.3114929000   41.8204956000
O   288   8     57.6119232000   56.2133560000   41.1776657000
N   289   7     55.3116798000   56.3330421000   41.2950058000
H   290   1     54.5378189000   56.3577843000   41.9626198000
C   291   6     55.0688019000   55.9876442000   39.9482002000
H   292   1     55.8634529000   56.4398422000   39.2941246000
C   293   6     55.2007523000   54.4517326000   39.7402534000
H   294   1     56.0970459000   54.1550026000   40.3187485000
H   295   1     54.2883148000   53.9203415000   39.9786072000
S   296   16     55.7462692000   54.0225258000   38.0449867000
H   297   1     57.0146179000   54.4065323000   38.3037720000
C   298   6     53.3643417000   51.3180199000   35.7328835000
H   299   1     53.4797096000   50.2796402000   35.6423607000
H   300   1     53.9958801000   51.6297607000   36.5286789000
C   301   6     51.9323883000   51.6058884000   36.2270470000
H   302   1     51.7146072000   52.6244202000   36.2420998000
H   303   1     51.2088089000   51.1751518000   35.5324097000
S   304   16     51.9279099000   51.0891724000   37.9547462000
C   305   6     51.0356560000   49.4995461000   37.7887764000
H   306   1     51.5654182000   48.6947212000   37.2267113000
H   307   1     51.0055504000   49.1602554000   38.7792931000
H   308   1     50.0034027000   49.7392235000   37.5024986000
C   309   6     57.2592354000   49.6245041000   38.2509537000
H   310   1     57.4477921000   48.6649933000   37.7264862000
H   311   1     57.5130653000   49.3781738000   39.2432442000
C   312   6     55.6847000000   49.7870941000   38.2557144000
H   313   1     55.4535332000   50.6466103000   38.8471756000
H   314   1     55.5096245000   50.0157700000   37.1787643000
S   315   16     54.5137978000   48.4685287000   38.7310181000
C   316   6     54.6113052000   48.6501770000   40.5689583000
H   317   1     55.6556168000   48.5200539000   40.9441566000
H   318   1     54.3553505000   49.6686935000   40.7689972000
H   319   1     54.0331726000   47.8764648000   41.1191330000
C   320   6     41.0910187000   48.2243423000   35.3238602000
H   321   1     40.6772194000   49.0588760000   34.8634300000
H   322   1     40.4057388000   48.0454102000   36.1459656000
C   323   6     42.4095497000   48.5963593000   35.9716110000
C   324   6     42.6314087000   48.2235489000   37.3260803000
H   325   1     41.9257698000   47.6450424000   37.8752632000
C   326   6     43.8189850000   48.6503029000   37.9488144000
H   327   1     44.0268173000   48.2812881000   38.9484787000
C   328   6     44.7324219000   49.4987526000   37.3212357000
O   329   8     45.8320007000   49.8018456000   37.9934731000
H   330   1     46.5508041000   49.9939651000   37.3207169000
C   331   6     44.4879150000   49.8805695000   35.9547882000
H   332   1     45.2020416000   50.6032524000   35.5888596000
C   333   6     43.3494987000   49.4313774000   35.2984200000
H   334   1     43.0350342000   49.7626724000   34.2811432000
C   335   6     49.7610130000   57.9895821000   41.1730232000
O   336   8     48.7098732000   57.9316368000   41.8327293000
N   337   7     50.8059692000   57.2217026000   41.4963226000
H   338   1     51.7322960000   57.4323196000   41.0240746000
C   339   6     50.7751617000   56.0848694000   42.4247284000
H   340   1     49.8811760000   56.0671196000   42.9422340000
C   341   6     50.7762527000   54.7204514000   41.6805305000
H   342   1     50.8519020000   53.8509407000   42.3695602000
C   343   6     49.5148697000   54.4389954000   40.9487953000
H   344   1     49.5425797000   53.4166908000   40.5583801000
H   345   1     48.6545715000   54.3689537000   41.6623383000
H   346   1     49.2799530000   55.1267090000   40.1301537000
O   347   8     51.8429222000   54.7247162000   40.7050171000
H   348   1     52.6615601000   54.3691559000   41.0895157000
C   349   6     51.9725761000   56.1306076000   43.3770599000
O   350   8     53.0492935000   56.5346451000   42.9554558000
N   351   7     51.7941132000   55.7142105000   44.6685066000
H   352   1     50.8576431000   55.4752426000   45.0317841000
C   353   6     52.8549538000   55.6603317000   45.6914330000
H   354   1     53.8417015000   55.2872772000   45.2688370000
C   355   6     53.1316948000   57.0632324000   46.1498451000
H   356   1     54.0153503000   57.0585976000   46.7158890000
H   357   1     53.5056496000   57.6769791000   45.3542633000
C   358   6     51.9954681000   57.8440132000   46.9062233000
H   359   1     51.2845573000   58.3355713000   46.1880112000
H   360   1     51.5001106000   57.1184349000   47.4943199000
C   361   6     52.5977287000   58.9791679000   47.7753487000
H   362   1     51.7785225000   59.2354774000   48.4932671000
H   363   1     53.4749374000   58.5935020000   48.3035202000
C   364   6     52.9177780000   60.1589050000   46.8633728000
H   365   1     53.8457680000   59.9166183000   46.3321877000
H   366   1     52.1217270000   60.3985786000   46.1027069000
N   367   7     53.1808929000   61.4306030000   47.5324097000
H   368   1     53.9784164000   61.4294472000   48.0970230000
H   369   1     53.2800102000   62.1070786000   46.8003693000
H   370   1     52.3346176000   61.7972794000   47.9229164000
C   371   6     52.4458542000   54.5880356000   46.7243881000
O   372   8     51.2810516000   54.4293747000   47.1975327000
N   373   7     53.4656105000   53.7485466000   47.0730515000
H   374   1     54.3823204000   54.0149612000   46.8443642000
C   375   6     53.3922653000   52.8015518000   48.2131653000
H   376   1     52.7276840000   53.3080521000   48.9533806000
C   377   6     52.7651978000   51.4251099000   47.8297424000
H   378   1     52.7190208000   50.9020462000   48.8145256000
H   379   1     51.7215385000   51.5622482000   47.4736061000
C   380   6     53.5151978000   50.4414215000   46.8417282000
H   381   1     53.6586838000   50.9456711000   45.8497543000
C   382   6     54.9180145000   50.0274506000   47.2730217000
H   383   1     55.2675591000   49.1801872000   46.7431183000
H   384   1     55.5945587000   50.8659554000   47.1059608000
H   385   1     54.8753319000   49.7367477000   48.2926941000
C   386   6     52.7567749000   49.1476021000   46.6228828000
H   387   1     51.7171135000   49.4137383000   46.4923096000
H   388   1     53.1926270000   48.5318375000   45.8613586000
H   389   1     52.8533630000   48.5937195000   47.5511894000
C   390   6     52.5501785000   47.1986465000   55.6828918000
O   391   8     53.6965103000   47.6518021000   55.6488190000
N   392   7     51.5235138000   47.7289581000   55.0148392000
H   393   1     50.5630188000   47.4887276000   55.2667236000
C   394   6     51.7566719000   48.7381287000   53.9507332000
H   395   1     52.7739372000   49.1409149000   54.1650848000
C   396   6     51.7261162000   48.0764313000   52.5662689000
H   397   1     50.7215576000   47.7917290000   52.2527771000
H   398   1     51.9469490000   48.8307915000   51.8939896000
C   399   6     52.6812706000   46.8441734000   52.3120918000
H   400   1     53.7046242000   47.0765724000   52.3377647000
H   401   1     52.4878120000   46.1500778000   53.0880318000
C   402   6     52.4712982000   46.1014214000   50.9765663000
O   403   8     53.3574257000   45.3641891000   50.6162453000
N   404   7     51.4926491000   46.4384499000   50.0934258000
H   405   1     50.6876144000   46.9557495000   50.4339981000
H   406   1     51.5303345000   46.0205994000   49.1595078000
C   407   6     50.8489609000   49.9792709000   53.9776802000
O   408   8     49.7668419000   49.9055023000   54.5807228000
N   409   7     51.2761002000   51.1039963000   53.3666649000
H   410   1     52.2418442000   51.1933975000   53.0398483000
C   411   6     50.5415535000   52.2985115000   52.9852753000
H   412   1     49.5513000000   52.1413727000   53.3376884000
C   413   6     51.3087273000   53.4402313000   53.7579155000
H   414   1     51.1131592000   53.3796616000   54.8123741000
H   415   1     52.4084473000   53.2766342000   53.6546173000
C   416   6     51.0060501000   54.8513718000   53.2111015000
C   417   6     51.6415787000   55.3652573000   52.0474472000
H   418   1     52.2334709000   54.7112961000   51.3433800000
C   419   6     51.1547318000   56.5558777000   51.4662743000
H   420   1     51.4545746000   56.8594704000   50.4918900000
C   421   6     50.3132591000   57.3656654000   52.2779083000
O   422   8     49.8069305000   58.5152664000   51.7775497000
H   423   1     49.5459290000   59.0903244000   52.4717140000
C   424   6     49.9902802000   56.9804611000   53.6636162000
H   425   1     49.3087921000   57.5706100000   54.2667542000
C   426   6     50.3253212000   55.6872139000   54.0678062000
H   427   1     49.9184761000   55.2401428000   54.9728203000
C   428   6     50.4956627000   52.5711212000   51.4891052000
O   429   8     51.5212402000   52.4089661000   50.7924728000
N   430   7     49.4059830000   53.0981598000   50.9903336000
H   431   1     48.6196823000   53.3427849000   51.5396690000
C   432   6     49.1921196000   53.1968384000   49.5274162000
H   433   1     50.1085968000   53.4516678000   49.0707245000
C   434   6     48.7193527000   51.9058838000   48.8992996000
H   435   1     49.4221840000   51.1640015000   49.2591896000
H   436   1     47.6930046000   51.6507721000   49.2740173000
C   437   6     48.7001839000   51.7843628000   47.3991356000
H   438   1     49.4526672000   52.4390831000   46.9380150000
H   439   1     48.8484268000   50.7249298000   47.2074966000
C   440   6     47.3167610000   52.0184669000   46.8345337000
O   441   8     46.5665016000   52.8897476000   47.3008270000
O   442   8     46.9087067000   51.3174973000   45.9315872000
C   443   6     48.2811546000   54.4288826000   49.3264923000
O   444   8     47.3895111000   54.7266693000   50.1516190000
N   445   7     48.5682907000   55.2401276000   48.2852402000
H   446   1     49.4427490000   54.9696960000   47.7060242000
C   447   6     47.9234390000   56.4220619000   47.8454552000
H   448   1     46.8356705000   56.3783989000   48.0036736000
C   449   6     48.5625687000   57.5918541000   48.5643959000
H   450   1     48.4355888000   57.4091949000   49.6744957000
H   451   1     49.6553116000   57.5484123000   48.3856812000
C   452   6     47.9936523000   59.0261993000   48.0978470000
H   453   1     48.3078156000   59.1297607000   47.0653152000
H   454   1     46.9401932000   59.0158691000   48.2381592000
C   455   6     48.5777321000   60.2669716000   48.8797989000
H   456   1     49.6217918000   60.0497894000   49.0870819000
H   457   1     48.4865265000   61.1712875000   48.3119583000
N   458   7     47.8326035000   60.5163879000   50.1601448000
H   459   1     48.2458076000   60.2571907000   51.0102043000
C   460   6     46.7371902000   61.2061615000   50.3495255000
N   461   7     46.0170746000   61.7933846000   49.4215584000
H   462   1     46.2841454000   61.6517029000   48.4696808000
H   463   1     45.0957527000   62.1314240000   49.7365875000
N   464   7     46.3776207000   61.4248619000   51.6394653000
H   465   1     46.9605598000   60.9584274000   52.3467598000
H   466   1     45.4886398000   61.9873619000   51.8711052000
C   467   6     48.0079193000   56.6000404000   46.2800217000
O   468   8     49.0307770000   56.2918282000   45.6844940000
N   469   7     46.9747162000   57.1868477000   45.7488785000
H   470   1     46.0968742000   57.3289680000   46.2719345000
C   471   6     46.8975029000   57.4621620000   44.3755112000
H   472   1     47.9743729000   57.5605774000   44.0438843000
C   473   6     46.2946739000   56.2457886000   43.6357689000
H   474   1     45.2491302000   56.4379845000   43.6775627000
H   475   1     46.5795517000   56.2578392000   42.5861359000
C   476   6     46.6578331000   54.8876228000   44.1168633000
O   477   8     47.6655159000   54.3559837000   43.8106728000
N   478   7     45.8637924000   54.3112259000   44.9971809000
H   479   1     46.2720146000   53.5248604000   45.5534286000
H   480   1     45.1062469000   54.8404922000   45.3098602000
H   481   1     38.9192831470   45.7042008873   52.3530306187
H   482   1     44.3393453549   56.0469846649   50.2724590313
H   483   1     47.6004045940   46.7193969337   55.8748648241
H   484   1     49.3789502595   41.2310554861   55.0098326442